 &FCI NORB=  10,NELEC=14,MS2=0,
  ORBSYM=1,1,1,1,1,1,1,1,1,1,
  ISYM=1,
 &END
 2.199551371547832    1    1    1    1
 2.689978089191566e-07    1    1    2    1
 2.200255262501536    1    1    2    2
 -4.109953399373355e-08    1    1    3    1
 -0.1970482137486136    1    1    3    2
 0.6111638629550508    1    1    3    3
 0.2076672355321357    1    1    4    1
 1.438614336486986e-08    1    1    4    2
 -4.693968019495767e-08    1    1    4    3
 0.6153090030532489    1    1    4    4
 -7.077603650119638e-09    1    1    5    1
 -0.03687930583028622    1    1    5    2
 -0.01499371382270618    1    1    5    3
 -1.755365499516751e-08    1    1    5    4
 0.6044089494431376    1    1    5    5
 0.6065876122556386    1    1    6    6
 0.6065876122556386    1    1    7    7
 -4.928292450325203e-08    1    1    8    6
 1.96564360694849e-09    1    1    8    7
 0.6178406914896226    1    1    8    8
 -1.965643265548766e-09    1    1    9    6
 -4.928292379430479e-08    1    1    9    7
 0.6178406914896233    1    1    9    9
 0.0413931806976479    1    1   10    1
 3.721367354742022e-09    1    1   10    2
 -1.161116772349248e-08    1    1   10    3
 0.03907471676267304    1    1   10    4
 4.65128229904273e-08    1    1   10    5
 0.6600741975826538    1    1   10   10
 2.689978088565389e-07    2    1    1    1
 1.935648474962107    2    1    2    1
 -2.688998748302262e-07    2    1    2    2
 -0.1971799125791945    2    1    3    1
 1.367755311427824e-08    2    1    3    2
 4.179323403587366e-11    2    1    3    3
 1.440823034755935e-08    2    1    4    1
 0.2074587426547038    2    1    4    2
 -0.3378277169487453    2    1    4    3
 -3.751307458626224e-11    2    1    4    4
 -0.03251427279949781    2    1    5    1
 2.263705989242067e-09    2    1    5    2
 9.154178143822562e-12    2    1    5    3
 -0.126333224495063    2    1    5    4
 9.653997869324073e-12    2    1    5    5
 -2.10840979509786e-15    2    1    6    5
 1.717988927739966e-11    2    1    6    6
 -1.467384847319508e-15    2    1    7    3
 8.266459420223618e-15    2    1    7    5
 -8.443144524199126e-15    2    1    7    6
 1.712344966164303e-11    2    1    7    7
 -2.037590934439472e-15    2    1    8    5
 -0.3546915441282402    2    1    8    6
 0.01414682922466618    2    1    8    7
 -1.703663917781531e-11    2    1    8    8
 -1.107187320794345e-15    2    1    9    4
 2.087410034045542e-15    2    1    9    5
 -0.01414682922466617    2    1    9    6
 -0.3546915441282404    2    1    9    7
 6.101749389365901e-15    2    1    9    8
 -1.697880724904621e-11    2    1    9    9
 3.304837384567058e-09    2    1   10    1
 0.04747763344009007    2    1   10    2
 -0.08355026373824007    2    1   10    3
 -1.165885301135094e-11    2    1   10    4
 0.3347489196776435    2    1   10    5
 -1.965942488488337e-15    2    1   10    6
 2.125944095955165e-15    2    1   10    7
 -2.524476312480567e-15    2    1   10    8
 8.273177305266107e-15    2    1   10    9
 -1.155350815018608e-11    2    1   10   10
 2.200255262501535    2    2    1    1
 -2.68899874357096e-07    2    2    2    1
 2.200959898913287    2    2    2    2
 1.368669105432272e-08    2    2    3    1
 -0.1971652740957385    2    2    3    2
 0.6111571325083559    2    2    3    3
 0.207777280500587    2    2    4    1
 -4.327225995996741e-08    2    2    4    2
 4.693932746092559e-08    2    2    4    3
 0.6153471479310774    2    2    4    4
 1.96037082699532e-09    2    2    5    1
 -0.0368422478402144    2    2    5    2
 -0.01491431505006533    2    2    5    3
 1.755311340114451e-08    2    2    5    4
 0.6044334584745747    2    2    5    5
 0.6065870717827665    2    2    6    6
 0.6065870717827664    2    2    7    7
 4.928237874031742e-08    2    2    8    6
 -1.965621561194494e-09    2    2    8    7
 0.6178432949751472    2    2    8    8
 1.965621899892706e-09    2    2    9    6
 4.928237941908086e-08    2    2    9    7
 0.6178432949751479    2    2    9    9
 0.04148302585279403    2    2   10    1
 -9.478443767590752e-09    2    2   10    2
 1.160663543592808e-08    2    2   10    3
 0.03899785535977059    2    2   10    4
 -4.651062171844485e-08    2    2   10    5
 0.6600530786541254    2    2   10   10
 -4.109953405636627e-08    3    1    1    1
 -0.1971799125791945    3    1    2    1
 1.368669110680387e-08    3    1    2    2
 0.02953512261529264    3    1    3    1
 6.095000143387261e-12    3    1    3    2
 -5.382141063996966e-10    3    1    3    3
 -4.294492283041984e-09    3    1    4    1
 -0.03090342353910242    3    1    4    2
 0.00885145733053805    3    1    4    3
 -6.691332626968194e-10    3    1    4    4
 0.004153803654121524    3    1    5    1
 -3.225986089088363e-13    3    1    5    2
 -1.817095724305064e-10    3    1    5    3
 0.003852518576811045    3    1    5    4
 -3.912163098693221e-10    3    1    5    5
 -3.759566425681224e-10    3    1    6    6
 -3.759557075499584e-10    3    1    7    7
 0.005876688454143493    3    1    8    6
 -0.0002343910063366978    3    1    8    7
 -4.050029509238633e-10    3    1    8    8
 0.0002343910063366977    3    1    9    6
 0.005876688454143497    3    1    9    7
 -4.050039101831382e-10    3    1    9    9
 -1.096044416229896e-09    3    1   10    1
 -0.007894572239520557    3    1   10    2
 0.0008813798997315843    3    1   10    3
 3.296282945897948e-11    3    1   10    4
 -0.005624251949220611    3    1   10    5
 -4.302966182152812e-10    3    1   10   10
 -0.1970482137486135    3    2    1    1
 1.367755302513679e-08    3    2    2    1
 -0.1971652740957386    3    2    2    2
 6.094994996407226e-12    3    2    3    1
 0.02956742863268329    3    2    3    2
 -0.007722925338037358    3    2    3    3
 -0.03090897132381004    3    2    4    1
 4.29403687601273e-09    3    2    4    2
 -6.142438401766631e-10    3    2    4    3
 -0.009638195223546897    3    2    4    4
 -3.21256205112986e-13    3    2    5    1
 0.00414840969128921    3    2    5    2
 -0.002613869016208743    3    2    5    3
 -2.677779046798475e-10    3    2    5    4
 -0.005624806282268031    3    2    5    5
 -0.005402180535788218    3    2    6    6
 -0.005402180535788218    3    2    7    7
 -4.07898405693847e-10    3    2    8    6
 1.626897433693843e-11    3    2    8    7
 -0.00582821629717396    3    2    8    8
 -1.626898412195243e-11    3    2    9    6
 -4.07898437996289e-10    3    2    9    7
 -0.005828216297173966    3    2    9    9
 -0.007876506414685765    3    2   10    1
 1.095268450274448e-09    3    2   10    2
 -6.097367337804045e-11    3    2   10    3
 0.000476244326871699    3    2   10    4
 3.903820558936569e-10    3    2   10    5
 -0.006189060050060019    3    2   10   10
 0.6111638629550507    3    3    1    1
 4.179334920131624e-11    3    3    2    1
 0.611157132508356    3    3    2    2
 -5.382141213562534e-10    3    3    3    1
 -0.007722925338037365    3    3    3    2
 0.4919300565704532    3    3    3    3
 0.0095306332603041    3    3    4    1
 -6.614298931086247e-10    3    3    4    2
 -2.278775040950969e-11    3    3    4    3
 0.4674908721250885    3    3    4    4
 -5.369137604133174e-10    3    3    5    1
 -0.007729308868305114    3    3    5    2
 -0.04792994750854386    3    3    5    3
 -1.265380082921205e-11    3    3    5    4
 0.4792777694823042    3    3    5    5
 0.4781958282989933    3    3    6    6
 0.4781958282989933    3    3    7    7
 -2.652391465216061e-11    3    3    8    6
 1.057950521441757e-12    3    3    8    7
 0.480040546013241    3    3    8    8
 -1.057828144412286e-12    3    3    9    6
 -2.652393780351182e-11    3    3    9    7
 0.4800405460132415    3    3    9    9
 -0.005309254271337531    3    3   10    1
 3.695123434454819e-10    3    3   10    2
 -7.259285178821322e-12    3    3   10    3
 0.04838957608047234    3    3   10    4
 2.530588656327464e-11    3    3   10    5
 0.5131527658978865    3    3   10   10
 0.2076672355321356    4    1    1    1
 1.440823042668168e-08    4    1    2    1
 0.2077772805005872    4    1    2    2
 -4.294492275643517e-09    4    1    3    1
 -0.03090897132381007    4    1    3    2
 0.00953063326030412    4    1    3    3
 0.03286397474805052    4    1    4    1
 -1.424183975945634e-12    4    1    4    2
 -6.172041327782327e-10    4    1    4    3
 0.009500325358118322    4    1    4    4
 -9.337186118466021e-10    4    1    5    1
 -0.006717593076705667    4    1    5    2
 -0.0008725964670501695    4    1    5    3
 -3.848126705471178e-11    4    1    5    4
 0.005488331029596111    4    1    5    5
 0.006042631728703341    4    1    6    6
 0.006042631728703341    4    1    7    7
 -4.022609207074479e-10    4    1    8    6
 1.604413105912207e-11    4    1    8    7
 0.006342886992297373    4    1    8    8
 -1.604412384963804e-11    4    1    9    6
 -4.022608993441932e-10    4    1    9    7
 0.00634288699229738    4    1    9    9
 0.00563117113194995    4    1   10    1
 1.334494933072076e-12    4    1   10    2
 -3.028648585468224e-10    4    1   10    3
 0.003163064974730078    4    1   10    4
 3.808317994007565e-10    4    1   10    5
 0.008210365348479277    4    1   10   10
 1.4386143415124e-08    4    2    1    1
 0.2074587426547038    4    2    2    1
 -4.327226001855898e-08    4    2    2    2
 -0.03090342353910244    4    2    3    1
 4.294036879379437e-09    4    2    3    2
 -6.614299110240711e-10    4    2    3    3
 -1.424180375776651e-12    4    2    4    1
 0.03289767043652111    4    2    4    2
 -0.008892368959293019    4    2    4    3
 -6.617234227522133e-10    4    2    4    4
 -0.006729891495994149    4    2    5    1
 9.347424546891493e-10    4    2    5    2
 6.024202568967687e-11    4    2    5    3
 -0.0005592342964546751    4    2    5    4
 -3.814960556326205e-10    4    2    5    5
 -4.198328755740631e-10    4    2    6    6
 -4.198337973172584e-10    4    2    7    7
 -0.005795597836509545    4    2    8    6
 0.0002311567168861002    4    2    8    7
 -4.412854579450348e-10    4    2    8    8
 -0.0002311567168861    4    2    9    6
 -0.005795597836509549    4    2    9    7
 -4.412845119698694e-10    4    2    9    9
 1.334104816999487e-12    4    2   10    1
 0.005657753483555165    4    2   10    2
 -0.004356163789454892    4    2   10    3
 -2.199152900128756e-10    4    2   10    4
 0.005486131841120154    4    2   10    5
 -5.708938113913042e-10    4    2   10   10
 -4.693968016477464e-08    4    3    1    1
 -0.3378277169487454    4    3    2    1
 4.693932754076898e-08    4    3    2    2
 0.008851457330538055    4    3    3    1
 -6.142438319308098e-10    4    3    3    2
 -2.278768462495939e-11    4    3    3    3
 -6.17204139190639e-10    4    3    4    1
 -0.008892368959293004    4    3    4    2
 0.1969014291810335    4    3    4    3
 2.286397179041061e-11    4    3    4    4
 -0.0007953787078915879    4    3    5    1
 5.45205084767332e-11    4    3    5    2
 -6.535130051466682e-12    4    3    5    3
 0.08361906342164774    4    3    5    4
 -4.221670171550729e-12    4    3    5    5
 1.244317375526692e-15    4    3    6    5
 -9.660444680655323e-12    4    3    6    6
 -4.881511311913209e-15    4    3    7    5
 5.041749591628181e-15    4    3    7    6
 -9.626742289841535e-12    4    3    7    7
 1.208527501417027e-15    4    3    8    5
 0.2117730397337585    4    3    8    6
 -0.008446542008395725    4    3    8    7
 1.066086591224006e-11    4    3    8    8
 -1.238567789797601e-15    4    3    9    5
 0.008446542008395719    4    3    9    6
 0.2117730397337586    4    3    9    7
 -3.643218801323024e-15    4    3    9    8
 1.062629151338257e-11    4    3    9    9
 -3.340413283302242e-10    4    3   10    1
 -0.004798677431076746    4    3   10    2
 0.03806183978378638    4    3   10    3
 6.121508121901399e-12    4    3   10    4
 -0.1959533839539171    4    3   10    5
 1.156354434753788e-15    4    3   10    6
 -1.247229507206671e-15    4    3   10    7
 1.490801980931934e-15    4    3   10    8
 -4.878590532315959e-15    4    3   10    9
 7.625761133667197e-12    4    3   10   10
 0.6153090030532486    4    4    1    1
 -3.751305888404393e-11    4    4    2    1
 0.6153471479310773    4    4    2    2
 -6.691332707052324e-10    4    4    3    1
 -0.0096381952235469    4    4    3    2
 0.4674908721250885    4    4    3    3
 0.009500325358118311    4    4    4    1
 -6.61723421235275e-10    4    4    4    2
 2.286397285426441e-11    4    4    4    3
 0.473347699870769    4    4    4    4
 2.72646617341844e-11    4    4    5    1
 0.0003889274207438298    4    4    5    2
 0.001819118121765695    4    4    5    3
 9.090327961183748e-12    4    4    5    4
 0.4761101914492654    4    4    5    5
 0.4702523889797666    4    4    6    6
 0.4702523889797666    4    4    7    7
 2.494620913977849e-11    4    4    8    6
 -9.948990398979202e-13    4    4    8    7
 0.4754055958524705    4    4    8    8
 9.95088416767521e-13    4    4    9    6
 2.494642744325201e-11    4    4    9    7
 0.4754055958524711    4    4    9    9
 0.004105138198099073    4    4   10    1
 -2.855596745980284e-10    4    4   10    2
 5.15108370585583e-12    4    4   10    3
 0.004062180594285623    4    4   10    4
 -2.280831442618661e-11    4    4   10    5
 0.4901982709370254    4    4   10   10
 -7.077603654716895e-09    5    1    1    1
 -0.03251427279949782    5    1    2    1
 1.960370830282806e-09    5    1    2    2
 0.004153803654121527    5    1    3    1
 -3.212551042276534e-13    5    1    3    2
 -5.369137582673274e-10    5    1    3    3
 -9.33718614454303e-10    5    1    4    1
 -0.006729891495994149    5    1    4    2
 -0.0007953787078915851    5    1    4    3
 2.726466241657167e-11    5    1    4    4
 0.01069677733621251    5    1    5    1
 1.168574304720261e-11    5    1    5    2
 1.021273453437397e-09    5    1    5    3
 -0.013801522022126    5    1    5    4
 4.427743704200302e-11    5    1    5    5
 -2.285807081059398e-10    5    1    6    6
 -2.285808894089037e-10    5    1    7    7
 -0.001139740207605675    5    1    8    6
 4.545839996584036e-05    5    1    8    7
 -1.963229814664744e-10    5    1    8    8
 -4.545839996584033e-05    5    1    9    6
 -0.001139740207605675    5    1    9    7
 -1.9632279536861e-10    5    1    9    9
 1.395059880502372e-09    5    1   10    1
 0.009936328394225069    5    1   10    2
 0.01398750431152581    5    1   10    3
 -1.079063547584743e-09    5    1   10    4
 0.001355002260547173    5    1   10    5
 -6.091674829497573e-10    5    1   10   10
 -0.03687930583028621    5    2    1    1
 2.26370596860896e-09    5    2    2    1
 -0.03684224784021441    5    2    2    2
 -3.225979080438838e-13    5    2    3    1
 0.004148409691289213    5    2    3    2
 -0.007729308868305117    5    2    3    3
 -0.006717593076705666    5    2    4    1
 9.347424541232579e-10    5    2    4    2
 5.4520510172553e-11    5    2    4    3
 0.0003889274207438279    5    2    4    4
 1.168574185034616e-11    5    2    5    1
 0.0108622155860392    5    2    5    2
 0.0146817455911692    5    2    5    3
 9.592634242925857e-10    5    2    5    4
 0.0006385697562983749    5    2    5    5
 -0.003291355027917694    5    2    6    6
 -0.003291355027917694    5    2    7    7
 7.906850249990088e-11    5    2    8    6
 -3.153633778416205e-12    5    2    8    7
 -0.002825603497923746    5    2    8    8
 3.153642792867214e-12    5    2    9    6
 7.906854146034738e-11    5    2    9    7
 -0.002825603497923749    5    2    9    9
 0.01014293826203955    5    2   10    1
 -1.394861538803436e-09    5    2   10    2
 -9.708148346044685e-10    5    2   10    3
 -0.01554432830048543    5    2   10    4
 -9.427146032528671e-11    5    2   10    5
 -0.008767798679367271    5    2   10   10
 -0.01499371382270617    5    3    1    1
 9.154188529880379e-12    5    3    2    1
 -0.01491431505006531    5    3    2    2
 -1.817095716382276e-10    5    3    3    1
 -0.00261386901620875    5    3    3    2
 -0.04792994750854385    5    3    3    3
 -0.0008725964670501637    5    3    4    1
 6.024202334665634e-11    5    3    4    2
 -6.535139226092314e-12    5    3    4    3
 0.001819118121765687    5    3    4    4
 1.021273453735587e-09    5    3    5    1
 0.01468174559116921    5    3    5    2
 0.08331402869426735    5    3    5    3
 -1.806344073858812e-12    5    3    5    4
 -0.01220781608257839    5    3    5    5
 -0.02126535480132269    5    3    6    6
 -1.691483984893778e-15    5    3    7    4
 -0.02126535480132268    5    3    7    7
 -2.934903910746137e-12    5    3    8    6
 1.170992604844847e-13    5    3    8    7
 -0.01642699304963862    5    3    8    8
 -1.17003305753017e-13    5    3    9    6
 -2.934506502563742e-12    5    3    9    7
 -0.01642699304963864    5    3    9    9
 0.01677085371447052    5    3   10    1
 -1.164130637108834e-09    5    3   10    2
 7.893328053271939e-12    5    3   10    3
 -0.07622770052420245    5    3   10    4
 2.165222559036918e-12    5    3   10    5
 -0.04924442411711094    5    3   10   10
 -1.755365499891095e-08    5    4    1    1
 -0.126333224495063    5    4    2    1
 1.755311341020199e-08    5    4    2    2
 0.003852518576811049    5    4    3    1
 -2.677779033751696e-10    5    4    3    2
 -1.265381405570987e-11    5    4    3    3
 -3.848126496186997e-11    5    4    4    1
 -0.0005592342964546768    5    4    4    2
 0.08361906342164774    5    4    4    3
 9.090291760079478e-12    5    4    4    4
 -0.013801522022126    5    4    5    1
 9.59263424750291e-10    5    4    5    2
 -1.806357603176786e-12    5    4    5    3
 0.09680421170491883    5    4    5    4
 -2.108835893886065e-12    5    4    5    5
 -4.975982945576126e-12    5    4    6    6
 -1.421718478672945e-15    5    4    7    3
 -2.217356584121848e-15    5    4    7    5
 2.033757132255599e-15    5    4    7    6
 -4.962398268513082e-12    5    4    7    7
 0.08542679491604442    5    4    8    6
 -0.003407237355652653    5    4    8    7
 3.583799597141465e-12    5    4    8    8
 0.003407237355652651    5    4    9    6
 0.08542679491604446    5    4    9    7
 -1.469653557421768e-15    5    4    9    8
 3.569859685637056e-12    5    4    9    9
 -1.151326427646739e-09    5    4   10    1
 -0.01658702071170716    5    4   10    2
 -0.04718927848420412    5    4   10    3
 -7.203401135661929e-12    5    4   10    4
 -0.08879544701578083    5    4   10    5
 -2.199520112027135e-15    5    4   10    9
 -1.79807557731948e-13    5    4   10   10
 0.6044089494431376    5    5    1    1
 9.653992801959948e-12    5    5    2    1
 0.6044334584745746    5    5    2    2
 -3.912163005144336e-10    5    5    3    1
 -0.005624806282268022    5    5    3    2
 0.4792777694823041    5    5    3    3
 0.005488331029596102    5    5    4    1
 -3.814960516499799e-10    5    5    4    2
 -4.221648012312102e-12    5    5    4    3
 0.4761101914492654    5    5    4    4
 4.427743941805552e-11    5    5    5    1
 0.0006385697562983777    5    5    5    2
 -0.0122078160825784    5    5    5    3
 -2.108842107564947e-12    5    5    5    4
 0.5112955722991618    5    5    5    5
 0.4637842955786387    5    5    6    6
 0.4637842955786388    5    5    7    7
 -4.669254153664892e-12    5    5    8    6
 1.86292436307133e-13    5    5    8    7
 0.4669988856101256    5    5    8    8
 -1.861434165590358e-13    5    5    9    6
 -4.669184284860193e-12    5    5    9    7
 0.4669988856101261    5    5    9    9
 0.002851005019439248    5    5   10    1
 -1.982145941094147e-10    5    5   10    2
 -2.00403775842522e-12    5    5   10    3
 0.004357074047540751    5    5   10    4
 5.464283521163529e-12    5    5   10    5
 1.096127511854868e-15    5    5   10    7
 0.5256736382058287    5    5   10   10
 0.01070961859802107    6    1    6    1
 3.726090320375016e-12    6    1    6    2
 1.050721702495432e-09    6    1    6    3
 -0.01482663311978035    6    1    6    4
 1.571019684710635e-10    6    1    6    5
 -1.5392621417624e-09    6    1    8    1
 -0.0110291362297863    6    1    8    2
 -0.01437642130826982    6    1    8    3
 1.105237496851586e-09    6    1    8    4
 -0.002788507204256554    6    1    8    5
 -6.139327304860387e-11    6    1    9    1
 -0.0004398957610389297    6    1    9    2
 -0.00057340182047422    6    1    9    3
 4.408224211686512e-11    6    1    9    4
 -0.0001112192716838663    6    1    9    5
 -0.002978746649213356    6    1   10    6
 2.270190857225223e-10    6    1   10    8
 9.054623506055473e-12    6    1   10    9
 3.72609101203579e-12    6    2    6    1
 0.01075553368106533    6    2    6    2
 0.01510049140951565    6    2    6    3
 1.030215433508496e-09    6    2    6    4
 0.002261820519597555    6    2    6    5
 -0.01112700632762535    6    2    8    1
 1.539230266300445e-09    6    2    8    2
 9.977834266291764e-10    6    2    8    3
 0.01592101665006281    6    2    8    4
 1.938789133305088e-10    6    2    8    5
 -0.0004437992980226863    6    2    9    1
 6.139202103998721e-11    6    2    9    2
 3.979646812417361e-11    6    2    9    3
 0.0006350078183709724    6    2    9    4
 7.732844898572073e-12    6    2    9    5
 2.06775588965037e-10    6    2   10    6
 0.003267285902642494    6    2   10    8
 0.0001303153020082457    6    2   10    9
 1.050721705961963e-09    6    3    6    1
 0.01510049140951565    6    3    6    2
 0.0769960390996655    6    3    6    3
 -3.177998062523258e-12    6    3    6    4
 0.005921648993723437    6    3    6    5
 1.729326724612305e-15    6    3    7    4
 -0.01563261910957572    6    3    8    1
 1.085102349683883e-09    6    3    8    2
 -8.819912657309762e-12    6    3    8    3
 0.07754480709522654    6    3    8    4
 -2.759973393639622e-13    6    3    8    5
 -0.0006235051174421633    6    3    9    1
 4.327917282020629e-11    6    3    9    2
 -3.519016302123613e-13    6    3    9    3
 0.003092865227255662    6    3    9    4
 -1.093986659375196e-14    6    3    9    5
 -1.439550444804593e-12    6    3   10    6
 0.01870735271329693    6    3   10    8
 0.0007461404943584495    6    3   10    9
 -0.01482663311978035    6    4    6    1
 1.030215434260991e-09    6    4    6    2
 -3.177996669781915e-12    6    4    6    3
 0.07048445243009324    6    4    6    4
 1.616734085833259e-13    6    4    6    5
 1.728090513285953e-15    6    4    7    3
 1.052988071656091e-09    6    4    8    1
 0.01517009654161872    6    4    8    2
 0.0676685533953407    6    4    8    3
 8.560143459403717e-12    6    4    8    4
 0.01647297975909563    6    4    8    5
 4.199827987822913e-11    6    4    9    1
 0.0006050574609085867    6    4    9    2
 0.002698952046113553    6    4    9    3
 3.415523243728402e-13    6    4    9    4
 0.0006570228000390439    6    4    9    5
 0.009964753752124892    6    4   10    6
 1.089450790339247e-12    6    4   10    8
 4.3484259162202e-14    6    4   10    9
 -2.10840979509786e-15    6    5    2    1
 1.244317375526692e-15    6    5    4    3
 1.571019689592723e-10    6    5    6    1
 0.002261820519597555    6    5    6    2
 0.005921648993723436    6    5    6    3
 1.616741481023558e-13    6    5    6    4
 0.02223423606921988    6    5    6    5
 -0.002349016717284907    6    5    8    1
 1.633363774323179e-10    6    5    8    2
 -2.140720026953407e-13    6    5    8    3
 0.0132496716635234    6    5    8    4
 -2.862288848970529e-13    6    5    8    5
 1.378527512367689e-15    6    5    8    6
 -9.369024690732597e-05    6    5    9    1
 6.514659557762092e-12    6    5    9    2
 -8.469957807690503e-15    6    5    9    3
 0.0005284615475326758    6    5    9    4
 -1.142389652975702e-14    6    5    9    5
 1.24800573979445e-15    6    5    9    7
 -1.279780385905839e-15    6    5   10    5
 9.715800222766294e-13    6    5   10    6
 -0.01908275358482246    6    5   10    8
 -0.0007611133125949689    6    5   10    9
 0.6065876122556385    6    6    1    1
 1.717987482320849e-11    6    6    2    1
 0.6065870717827665    6    6    2    2
 -3.759566310557892e-10    6    6    3    1
 -0.005402180535788223    6    6    3    2
 0.4781958282989933    6    6    3    3
 0.006042631728703338    6    6    4    1
 -4.198328790643624e-10    6    6    4    2
 -9.660402684666762e-12    6    6    4    3
 0.4702523889797668    6    6    4    4
 -2.285807058088587e-10    6    6    5    1
 -0.00329135502791769    6    6    5    2
 -0.02126535480132268    6    6    5    3
 -4.975975905350798e-12    6    6    5    4
 0.4637842955786388    6    6    5    5
 0.5024525348910693    6    6    6    6
 0.4618689866095036    6    6    7    7
 -1.25167172168261e-11    6    6    8    6
 4.207506790447285e-13    6    6    8    7
 0.5071769026345805    6    6    8    8
 -4.991332302537945e-13    6    6    9    6
 -1.05229374662753e-11    6    6    9    7
 0.001660203147813458    6    6    9    8
 0.4656182432261938    6    6    9    9
 -0.001658934708330081    6    6   10    1
 1.154792671130073e-10    6    6   10    2
 -3.677845118464857e-12    6    6   10    3
 0.0301953558685647    6    6   10    4
 1.028170217852545e-11    6    6   10    5
 0.4896738388324651    6    6   10   10
 0.01070961859802107    7    1    7    1
 3.72432818135468e-12    7    1    7    2
 1.050719313299624e-09    7    1    7    3
 -0.01482663311978035    7    1    7    4
 1.571015596643342e-10    7    1    7    5
 6.139329181257154e-11    7    1    8    1
 0.00043989576103893    7    1    8    2
 0.0005734018204742203    7    1    8    3
 -4.408227932127136e-11    7    1    8    4
 0.0001112192716838663    7    1    8    5
 -1.539262079440638e-09    7    1    9    1
 -0.01102913622978631    7    1    9    2
 -0.01437642130826984    7    1    9    3
 1.105237364885721e-09    7    1    9    4
 -0.002788507204256557    7    1    9    5
 -0.002978746649213357    7    1   10    7
 -9.05463251757946e-12    7    1   10    8
 2.270190526450916e-10    7    1   10    9
 3.724327981701431e-12    7    2    7    1
 0.01075553368106533    7    2    7    2
 0.01510049140951565    7    2    7    3
 1.030217909171421e-09    7    2    7    4
 0.002261820519597555    7    2    7    5
 0.0004437992980226865    7    2    8    1
 -6.139200629325542e-11    7    2    8    2
 -3.979647349087176e-11    7    2    8    3
 -0.0006350078183709727    7    2    8    4
 -7.732831145517403e-12    7    2    8    5
 -0.01112700632762535    7    2    9    1
 1.539230312408838e-09    7    2    9    2
 9.977833909406769e-10    7    2    9    3
 0.01592101665006282    7    2    9    4
 1.938789649458464e-10    7    2    9    5
 2.067760868064974e-10    7    2   10    7
 -0.0001303153020082457    7    2   10    8
 0.003267285902642496    7    2   10    9
 -1.467384847319509e-15    7    3    2    1
 -1.421718478672945e-15    7    3    5    4
 1.728162455395123e-15    7    3    6    4
 1.050719318092621e-09    7    3    7    1
 0.01510049140951565    7    3    7    2
 0.0769960390996655    7    3    7    3
 -3.166430339717789e-12    7    3    7    4
 0.005921648993723438    7    3    7    5
 0.0006235051174421636    7    3    8    1
 -4.327917793645628e-11    7    3    8    2
 3.516900738022385e-13    7    3    8    3
 -0.003092865227255664    7    3    8    4
 1.105838170010107e-14    7    3    8    5
 -0.01563261910957572    7    3    9    1
 1.085102311971704e-09    7    3    9    2
 -8.820792123226506e-12    7    3    9    3
 0.0775448070952266    7    3    9    4
 -2.755375519378328e-13    7    3    9    5
 1.129097424997811e-15    7    3    9    7
 -1.068182141019773e-15    7    3   10    5
 -1.436927024843957e-12    7    3   10    7
 -0.00074614049435845    7    3   10    8
 0.01870735271329694    7    3   10    9
 -1.691483984893778e-15    7    4    5    3
 1.728855336575593e-15    7    4    6    3
 -0.01482663311978035    7    4    7    1
 1.030217905574166e-09    7    4    7    2
 -3.166445463965776e-12    7    4    7    3
 0.07048445243009324    7    4    7    4
 1.640401439291135e-13    7    4    7    5
 -4.199831741751513e-11    7    4    8    1
 -0.0006050574609085869    7    4    8    2
 -0.002698952046113554    7    4    8    3
 -3.413250532659904e-13    7    4    8    4
 -0.0006570228000390442    7    4    8    5
 1.052987943451987e-09    7    4    9    1
 0.01517009654161873    7    4    9    2
 0.06766855339534074    7    4    9    3
 8.560970437397668e-12    7    4    9    4
 0.01647297975909564    7    4    9    5
 0.009964753752124895    7    4   10    7
 -4.342955853575786e-14    7    4   10    8
 1.089657010455714e-12    7    4   10    9
 8.266459420223616e-15    7    5    2    1
 -4.881511311913211e-15    7    5    4    3
 -2.217356584121849e-15    7    5    5    4
 1.571015600120413e-10    7    5    7    1
 0.002261820519597555    7    5    7    2
 0.005921648993723438    7    5    7    3
 1.640400978575627e-13    7    5    7    4
 0.02223423606921988    7    5    7    5
 9.369024690732601e-05    7    5    8    1
 -6.514645782071364e-12    7    5    8    2
 8.588632720688661e-15    7    5    8    3
 -0.000528461547532676    7    5    8    4
 1.141001813106121e-14    7    5    8    5
 -4.974293430395263e-15    7    5    8    6
 -0.002349016717284908    7    5    9    1
 1.633364285491536e-10    7    5    9    2
 -2.136136513101764e-13    7    5    9    3
 0.01324967166352341    7    5    9    4
 -2.863077418610967e-13    7    5    9    5
 -5.416581283807997e-15    7    5    9    7
 -1.118685474612749e-15    7    5   10    3
 5.033148193799216e-15    7    5   10    5
 9.687035692752479e-13    7    5   10    7
 0.0007611133125949694    7    5   10    8
 -0.01908275358482247    7    5   10    9
 -8.443139969615471e-15    7    6    2    1
 5.041014396563556e-15    7    6    4    3
 2.033565696378111e-15    7    6    5    4
 0.02029177414078271    7    6    7    6
 4.536587250580526e-14    7    6    8    6
 -9.938139079879014e-13    7    6    8    7
 -0.001660203147813495    7    6    8    8
 -9.966428057797285e-13    7    6    9    6