----- GAMESS execution script -----
This job is running on host nanolab.cnf.cornell.edu
under operating system Linux at Mon Apr 9 13:59:41 EDT 2007
Available scratch disk space (Kbyte units) at beginning of the job is
Filesystem           1K-blocks      Used Available Use% Mounted on
/dev/sda3             54285308   6463688  45064064  13% /

 Distributed Data Interface kickoff program.
 Initiating 1 compute processes on 1 nodes to run the following command:
 /home/toulouse/programs/gamess_modified/gamess.00.x c_sto14g_cvb1_hf 

          ******************************************************
          *         GAMESS VERSION = 22 NOV 2004 (R1)          *
          *             FROM IOWA STATE UNIVERSITY             *
          * M.W.SCHMIDT, K.K.BALDRIDGE, J.A.BOATZ, S.T.ELBERT, *
          *   M.S.GORDON, J.H.JENSEN, S.KOSEKI, N.MATSUNAGA,   *
          *          K.A.NGUYEN, S.J.SU, T.L.WINDUS,           *
          *       TOGETHER WITH M.DUPUIS, J.A.MONTGOMERY       *
          *         J.COMPUT.CHEM.  14, 1347-1363(1993)        *
          ******************* PC-UNIX VERSION ******************

     SINCE 1993, STUDENTS AND POSTDOCS WORKING AT IOWA STATE UNIVERSITY
     AND ALSO IN THEIR VARIOUS JOBS AFTER LEAVING ISU HAVE MADE IMPORTANT
     CONTRIBUTIONS TO THE CODE:
     IVANA ADAMOVIC, CHRISTINE AIKENS, ROB BELL, PRADIPTA BANDYOPADHYAY,
     BRETT BODE, GALINA CHABAN, WEI CHEN, CHEOL HO CHOI, PAUL DAY,
     TIM DUDLEY, DMITRI FEDOROV, GRAHAM FLETCHER, MARK FREITAG,
     KURT GLAESEMANN, GRANT MERRILL, HEATHER NETZLOFF, RYAN OLSON,
     MIKE PAK, JIM SHOEMAKER, TETSUYA TAKETSUGU, SIMON WEBB.

     ADDITIONAL CODE HAS BEEN PROVIDED BY COLLABORATORS IN OTHER GROUPS:
     IOWA STATE UNIVERSITY: JOE IVANIC, KLAUS RUEDENBERG
     UNIVERSITY OF TOKYO: KIMIHIKO HIRAO, HARUYUKI NAKANO, TAKAHITO
          NAKAJIMA, TAKAO TSUNEDA, MUNEAKI KAMIYA, SUSUMU YANAGISAWA,
          KIYOSHI YAGI
     ODENSE UNIVERSITY: FRANK JENSEN
     UNIVERSITY OF IOWA: VISVALDAS KAIRYS, HUI LI
     NATIONAL INST. OF STANDARDS AND TECHNOLOGY: WALT STEVENS, DAVID GARMER
     UNIVERSITY OF PISA: BENEDETTA MENNUCCI, JACOPO TOMASI
     UNIVERSITY OF MEMPHIS: HENRY KURTZ, PRAKASHAN KORAMBATH
     UNIVERSITY OF ALBERTA: MARIUSZ KLOBUKOWSKI
     UNIVERSITY OF NEW ENGLAND: MARK SPACKMAN
     MIE UNIVERSITY: HIROAKI UMEDA
     MICHIGAN STATE UNIVERSITY: KAROL KOWALSKI, PIOTR PIECUCH
     UNIVERSITY OF SILESIA: MONIKA MUSIAL, STANISLAW KUCHARSKI
     FACULTES UNIVERSITAIRES NOTRE-DAME DE LA PAIX:
          OLIVIER QUINET, BENOIT CHAMPAGNE
     UNIVERSITY OF CALIFORNIA - SANTA BARBARA: BERNARD KIRTMAN
     INSTITUTE FOR MOLECULAR SCIENCE: KAZUYA ISHIMURA AND SHIGERU NAGASE

 EXECUTION OF GAMESS BEGUN Mon Apr  9 13:59:41 2007

            ECHO OF THE FIRST FEW INPUT CARDS -
 INPUT CARD> $CONTRL                                                                        
 INPUT CARD>   EXETYP=RUN                                                                   
 INPUT CARD>   COORD=UNIQUE UNITS=BOHR                                                      
 INPUT CARD>   RUNTYP=ENERGY SCFTYP=ROHF MAXIT=200                                          
 INPUT CARD>   MULT=3                                                                       
 INPUT CARD> $END                                                                           
 INPUT CARD>                                                                                
 INPUT CARD> $GUESS                                                                         
 INPUT CARD>  GUESS=HUCKEL                                                                  
 INPUT CARD>  PRTMO=.TRUE.                                                                  
 INPUT CARD> $END                                                                           
 INPUT CARD>                                                                                
 INPUT CARD> $DATA                                                                          
 INPUT CARD>- C sto14g_cvb1 hf                                                              
 INPUT CARD>DNH 2                                                                           
 INPUT CARD>                                                                                
 INPUT CARD>C 6.0      0.0        0.0        0.0                                            
 INPUT CARD>1S   14   8.361682                                                              
 INPUT CARD>1S   14   5.206173                                                              
 INPUT CARD>1S   14   10.30548                                                              
 INPUT CARD>2S   14   4.063249                                                              
 INPUT CARD>2S   14   2.057774                                                              
 INPUT CARD>2S   14   1.329176                                                              
 INPUT CARD>2P   14   3.571537                                                              
 INPUT CARD>2P   14   1.748226                                                              
 INPUT CARD>2P   14   1.059707                                                              
 INPUT CARD>2P   14   8.081902                                                              
 INPUT CARD>3D   14   1.953933                                                              
 INPUT CARD>                                                                                
 INPUT CARD> $END                                                                           

 ..... DONE SETTING UP THE RUN .....
    1000000 WORDS OF MEMORY AVAILABLE


     RUN TITLE
     ---------
 - C sto14g_cvb1 hf                                                              

 THE POINT GROUP OF THE MOLECULE IS DNH     
 THE ORDER OF THE PRINCIPAL AXIS IS     2

 ATOM      ATOMIC                      COORDINATES (BOHR)
           CHARGE         X                   Y                   Z
 C           6.0     0.0000000000        0.0000000000        0.0000000000

          INTERNUCLEAR DISTANCES (ANGS.)
          ------------------------------

                    C         

  1  C               0.0000000    

  * ... LESS THAN  3.000

 ATOMS: STO-NG TYPE BASIS SET

     ATOMIC BASIS SET
     ----------------
 THE CONTRACTED PRIMITIVE FUNCTIONS HAVE BEEN UNNORMALIZED
 THE CONTRACTED BASIS FUNCTIONS ARE NOW NORMALIZED TO UNITY

 SHELL TYPE PRIMITIVE    SLATER EXPONENT     EXPONENT          CONTRACTION COEFFICIENTS

 C         

   1   1S   1             8.3616820        150056.7199863      0.000032071854
   1   1S   2                               27561.7070829      0.000180868724
   1   1S   3                                7722.9076318      0.000715732871
   1   1S   4                                2661.7435314      0.002327137410
   1   1S   5                                1044.3532224      0.006621033466
   1   1S   6                                 448.8377659      0.016968581946
   1   1S   7                                 206.5872377      0.039565969540
   1   1S   8                                 100.3596710      0.083424650726
   1   1S   9                                  50.9389479      0.155102805406
   1   1S  10                                  26.8091665      0.241346852708
   1   1S  11                                  14.5383833      0.286294283519
   1   1S  12                                   8.0700742      0.220624522944
   1   1S  13                                   4.5379096      0.083307088014
   1   1S  14                                   2.5144336      0.008488240712

   2   1S  15             5.2061730         58170.8414755      0.000032071854
   2   1S  16                               10684.5444420      0.000180868724
   2   1S  17                                2993.8548278      0.000715732871
   2   1S  18                                1031.8488971      0.002327137410
   2   1S  19                                 404.8529499      0.006621033466
   2   1S  20                                 173.9960099      0.016968581946
   2   1S  21                                  80.0854068      0.039565969540
   2   1S  22                                  38.9053320      0.083424650726
   2   1S  23                                  19.7469428      0.155102805406
   2   1S  24                                  10.3928153      0.241346852708
   2   1S  25                                   5.6359355      0.286294283519
   2   1S  26                                   3.1284371      0.220624522944
   2   1S  27                                   1.7591616      0.083307088014
   2   1S  28                                   0.9747429      0.008488240712

   3   1S  29            10.3054800        227931.6344248      0.000032071854
   3   1S  30                               41865.4022526      0.000180868724
   3   1S  31                               11730.8638973      0.000715732871
   3   1S  32                                4043.1081900      0.002327137410
   3   1S  33                                1586.3410644      0.006621033466
   3   1S  34                                 681.7710369      0.016968581946
   3   1S  35                                 313.7997868      0.039565969540
   3   1S  36                                 152.4433150      0.083424650726
   3   1S  37                                  77.3747264      0.155102805406
   3   1S  38                                  40.7223158      0.241346852708
   3   1S  39                                  22.0833661      0.286294283519
   3   1S  40                                  12.2581994      0.220624522944
   3   1S  41                                   6.8929480      0.083307088014
   3   1S  42                                   3.8193489      0.008488240712

   4   2S  43             4.0632490         48303.7798473     -0.000012553657
   4   2S  44                                8884.6381945     -0.000070674213
   4   2S  45                                2490.8791051     -0.000279006252
   4   2S  46                                 858.6516770     -0.000902551677
   4   2S  47                                 336.7774190     -0.002539637688
   4   2S  48                                 144.4905074     -0.006358497668
   4   2S  49                                  66.1898951     -0.014091245591
   4   2S  50                                  31.8437686     -0.026247761699
   4   2S  51                                  15.9275250     -0.033835499906
   4   2S  52                                   4.4366016      0.136316565351
   4   2S  53                                   2.4715154      0.346615099999
   4   2S  54                                   1.4202011      0.394391440628
   4   2S  55                                   0.8323102      0.179466944874
   4   2S  56                                   0.4834049      0.019147909853

   5   2S  57             2.0577740         12388.8100216     -0.000012553657
   5   2S  58                                2278.7056220     -0.000070674213
   5   2S  59                                 638.8532764     -0.000279006252
   5   2S  60                                 220.2244324     -0.000902551677
   5   2S  61                                  86.3756724     -0.002539637688
   5   2S  62                                  37.0584963     -0.006358497668
   5   2S  63                                  16.9761878     -0.014091245591
   5   2S  64                                   8.1671952     -0.026247761699
   5   2S  65                                   4.0850443     -0.033835499906
   5   2S  66                                   1.1378864      0.136316565351
   5   2S  67                                   0.6338869      0.346615099999
   5   2S  68                                   0.3642490      0.394391440628
   5   2S  69                                   0.2134685      0.179466944874
   5   2S  70                                   0.1239822      0.019147909853

   6   2S  71             1.3291760          5168.9130170     -0.000012553657
   6   2S  72                                 950.7314367     -0.000070674213
   6   2S  73                                 266.5451331     -0.000279006252
   6   2S  74                                  91.8829923     -0.000902551677
   6   2S  75                                  36.0380324     -0.002539637688
   6   2S  76                                  15.4617065     -0.006358497668
   6   2S  77                                   7.0828786     -0.014091245591
   6   2S  78                                   3.4075526     -0.026247761699
   6   2S  79                                   1.7043799     -0.033835499906
   6   2S  80                                   0.4747539      0.136316565351
   6   2S  81                                   0.2644731      0.346615099999
   6   2S  82                                   0.1519735      0.394391440628
   6   2S  83                                   0.0890642      0.179466944874
   6   2S  84                                   0.0517284      0.019147909853

   7   2P  85             3.5715370          2915.8786183      0.000013589949
   7   2P  86                                 761.8587697      0.000098737858
   7   2P  87                                 273.6900791      0.000479801845
   7   2P  88                                 115.3743497      0.001857311798
   7   2P  89                                  53.8222662      0.006124920625
   7   2P  90                                  26.9746159      0.017694065197
   7   2P  91                                  14.2717649      0.045024238144
   7   2P  92                                   7.8802627      0.099589645015
   7   2P  93                                   4.5040111      0.185117675279
   7   2P  94                                   2.6479025      0.272215006419
   7   2P  95                                   1.5921962      0.287038979472
   7   2P  96                                   0.9729926      0.185359431716
   7   2P  97                                   0.5981006      0.055951602281
   7   2P  98                                   0.3602260      0.004428704232

   8   2P  99             1.7482260           698.6413458      0.000013589949
   8   2P 100                                 182.5405327      0.000098737858
   8   2P 101                                  65.5758453      0.000479801845
   8   2P 102                                  27.6435687      0.001857311798
   8   2P 103                                  12.8957565      0.006124920625
   8   2P 104                                   6.4630886      0.017694065197
   8   2P 105                                   3.4194993      0.045024238144
   8   2P 106                                   1.8881024      0.099589645015
   8   2P 107                                   1.0791562      0.185117675279
   8   2P 108                                   0.6344346      0.272215006419
   8   2P 109                                   0.3814885      0.287038979472
   8   2P 110                                   0.2331280      0.185359431716
   8   2P 111                                   0.1433043      0.055951602281
   8   2P 112                                   0.0863097      0.004428704232

   9   2P 113             1.0597070           256.7028795      0.000013589949
   9   2P 114                                  67.0711527      0.000098737858
   9   2P 115                                  24.0946351      0.000479801845
   9   2P 116                                  10.1571196      0.001857311798
   9   2P 117                                   4.7383079      0.006124920625
   9   2P 118                                   2.3747427      0.017694065197
   9   2P 119                                   1.2564320      0.045024238144
   9   2P 120                                   0.6937484      0.099589645015
   9   2P 121                                   0.3965160      0.185117675279
   9   2P 122                                   0.2331113      0.272215006419
   9   2P 123                                   0.1401709      0.287038979472
   9   2P 124                                   0.0856586      0.185359431716
   9   2P 125                                   0.0526545      0.055951602281
   9   2P 126                                   0.0317129      0.004428704232

  10   2P 127             8.0819020         14930.9105587      0.000013589949
  10   2P 128                                3901.1380918      0.000098737858
  10   2P 129                                1401.4445136      0.000479801845
  10   2P 130                                 590.7804546      0.001857311798
  10   2P 131                                 275.5997585      0.006124920625
  10   2P 132                                 138.1249463      0.017694065197
  10   2P 133                                  73.0793263      0.045024238144
  10   2P 134                                  40.3513015      0.099589645015
  10   2P 135                                  23.0630267      0.185117675279
  10   2P 136                                  13.5587246      0.272215006419
  10   2P 137                                   8.1529249      0.287038979472
  10   2P 138                                   4.9822599      0.185359431716
  10   2P 139                                   3.0626060      0.055951602281
  10   2P 140                                   1.8445561      0.004428704232

  11   3D 141             1.9539330           214.3522735      0.000007211834
  11   3D 142                                  69.0248952      0.000064571730
  11   3D 143                                  28.8400973      0.000370632597
  11   3D 144                                  13.7589123      0.001645715217
  11   3D 145                                   7.1433105      0.006063213603
  11   3D 146                                   3.9382335      0.019041368835
  11   3D 147                                   2.2721520      0.051097955816
  11   3D 148                                   1.3586212      0.115162924520
  11   3D 149                                   0.8360653      0.209894375084
  11   3D 150                                   0.5265355      0.290459604554
  11   3D 151                                   0.3375961      0.276700110656
  11   3D 152                                   0.2190230      0.155660868486
  11   3D 153                                   0.1423611      0.039819181169
  11   3D 154                                   0.0904241      0.002624443047

 TOTAL NUMBER OF BASIS SET SHELLS             =   11
 NUMBER OF CARTESIAN GAUSSIAN BASIS FUNCTIONS =   24
 NUMBER OF ELECTRONS                          =    6
 CHARGE OF MOLECULE                           =    0
 SPIN MULTIPLICITY                            =    3
 NUMBER OF OCCUPIED ORBITALS (ALPHA)          =    4
 NUMBER OF OCCUPIED ORBITALS (BETA )          =    2
 TOTAL NUMBER OF ATOMS                        =    1
 THE NUCLEAR REPULSION ENERGY IS        0.0000000000

 THIS MOLECULE IS RECOGNIZED AS BEING LINEAR.

     $CONTRL OPTIONS
     ---------------
 SCFTYP=ROHF         RUNTYP=ENERGY       EXETYP=RUN     
 MPLEVL=       0     CITYP =NONE         CCTYP =NONE    
 MULT  =       3     ICHARG=       0     NZVAR =       0     COORD =UNIQUE  
 ECP   =NONE         RELWFN=NONE         LOCAL =NONE         NUMGRD=       F
 ISPHER=      -1     NOSYM =       0     MAXIT =     200     UNITS =BOHR    
 PLTORB=       F     MOLPLT=       F     AIMPAC=       F     FRIEND=        
 NPRINT=       7     IREST =       0     GEOM  =INPUT   
 NORMF =       0     NORMP =       0     ITOL  =      20     ICUT  =       9
 INTTYP=BEST         GRDTYP=BEST         QMTTOL= 1.0E-06

     $SYSTEM OPTIONS
     ---------------
  REPLICATED MEMORY=     1000000 WORDS (ON EVERY NODE).
 DISTRIBUTED MEMDDI=           0 MILLION WORDS IN AGGREGATE,
 MEMDDI DISTRIBUTED OVER   1 PROCESSORS IS           0 WORDS/PROCESSOR.
 TOTAL MEMORY REQUESTED ON EACH PROCESSOR=     1000000 WORDS.
 TIMLIM=      525600.00 MINUTES, OR   365.00 DAYS.
 PARALL= F  BALTYP=  NXTVAL  KDIAG=    0  COREFL= F

          ----------------
          PROPERTIES INPUT
          ----------------

     MOMENTS            FIELD           POTENTIAL          DENSITY
 IEMOM =       1   IEFLD =       0   IEPOT =       0   IEDEN =       0
 WHERE =COMASS     WHERE =NUCLEI     WHERE =NUCLEI     WHERE =NUCLEI  
 OUTPUT=BOTH       OUTPUT=BOTH       OUTPUT=BOTH       OUTPUT=BOTH    
 IEMINT=       0   IEFINT=       0                     IEDINT=       0
                                                       MORB  =       0
          EXTRAPOLATION IN EFFECT
          SOSCF IN EFFECT

     -------------------------------
     INTEGRAL TRANSFORMATION OPTIONS
     -------------------------------
     NWORD  =       0     CUTOFF = 1.0E-09
     MPTRAN =       0     DIRTRF =       F
     AOINTS =DUP     

          ----------------------
          INTEGRAL INPUT OPTIONS
          ----------------------
 NOPK  =       1 NORDER=       0 SCHWRZ=       F

     ------------------------------------------
     THE POINT GROUP IS DNH, NAXIS= 2, ORDER= 8
     ------------------------------------------

     DIMENSIONS OF THE SYMMETRY SUBSPACES ARE
 AG  =    9     AU  =    0     B3U =    4     B3G =    1     B1G =    1
 B1U =    4     B2U =    4     B2G =    1

 ..... DONE SETTING UP THE RUN .....
 STEP CPU TIME =     0.01 TOTAL CPU TIME =        0.0 (    0.0 MIN)
 TOTAL WALL CLOCK TIME=        0.0 SECONDS, CPU UTILIZATION IS 100.00%

          ********************
          1 ELECTRON INTEGRALS
          ********************
 ...... END OF ONE-ELECTRON INTEGRALS ......
 STEP CPU TIME =     0.02 TOTAL CPU TIME =        0.0 (    0.0 MIN)
 TOTAL WALL CLOCK TIME=        0.0 SECONDS, CPU UTILIZATION IS 100.00%

          -------------
          GUESS OPTIONS
          -------------
          GUESS =HUCKEL            NORB  =       0          NORDER=       0
          MIX   =       F          PRTMO =       T          PUNMO =       F
          TOLZ  = 1.0E-08          TOLE  = 1.0E-05
          SYMDEN=       F          PURIFY=       F

 INITIAL GUESS ORBITALS GENERATED BY HUCKEL   ROUTINE.
 HUCKEL GUESS REQUIRES      5239 WORDS.
 EIGENVALUES ARE DIAGONAL OF 1E- H IN MO BASIS

 SYMMETRIES FOR INITIAL GUESS ORBITALS FOLLOW.  ALPHA SET(S).
     4 ORBITALS ARE OCCUPIED (    1 CORE ORBITALS).
     2=AG       3=B3U      4=B2U      5=B1U      6=AG       7=AG       8=AG  
     9=AG      10=AG      11=AG      12=AG      13=B3U     14=B3U 

                              ----------------------
                              INITIAL GUESS ORBITALS
                              ----------------------

                              ----------------------
                              INITIAL GUESS ORBITALS
                              ----------------------

                              ASSIGNED OCCUPANCIES

                  1.000000   1.000000   1.000000   1.000000   0.000000
                  0.000000   0.000000   0.000000   0.000000   0.000000
                  0.000000   0.000000   0.000000   0.000000   0.000000
                  0.000000   0.000000   0.000000   0.000000   0.000000
                  0.000000   0.000000   0.000000   0.000000

                        1              2              3              4              5
                  -17.502095635   -4.404450937   -3.613931543   -3.613931543   -3.613931543
                       AG             AG             B3U            B2U            B1U 
    1  C  1  S     -0.569566175   -0.051045847    0.000000000    0.000000000    0.000000000
    2  C  1  S      1.391946684   -0.054173584    0.000000000    0.000000000    0.000000000
    3  C  1  S      0.359624487    0.049538801    0.000000000    0.000000000    0.000000000
    4  C  1  S     -0.205330744   -0.040497049    0.000000000    0.000000000    0.000000000
    5  C  1  S     -0.094016944    0.690384772    0.000000000    0.000000000    0.000000000
    6  C  1  S     -0.073392213    0.380092047    0.000000000    0.000000000    0.000000000
    7  C  1  X      0.000000000    0.000000000    0.058620169    0.000000000    0.000000000
    8  C  1  Y      0.000000000    0.000000000    0.000000000    0.058620169    0.000000000
    9  C  1  Z      0.000000000    0.000000000    0.000000000    0.000000000    0.058620169
   10  C  1  X      0.000000000    0.000000000    0.725906833    0.000000000    0.000000000
   11  C  1  Y      0.000000000    0.000000000    0.000000000    0.725906833    0.000000000
   12  C  1  Z      0.000000000    0.000000000    0.000000000    0.000000000    0.725906833
   13  C  1  X      0.000000000    0.000000000    0.258619527    0.000000000    0.000000000
   14  C  1  Y      0.000000000    0.000000000    0.000000000    0.258619527    0.000000000
   15  C  1  Z      0.000000000    0.000000000    0.000000000    0.000000000    0.258619527
   16  C  1  X      0.000000000    0.000000000    0.011854827    0.000000000    0.000000000
   17  C  1  Y      0.000000000    0.000000000    0.000000000    0.011854827    0.000000000
   18  C  1  Z      0.000000000    0.000000000    0.000000000    0.000000000    0.011854827
   19  C  1 XX      0.000000000    0.000000000    0.000000000    0.000000000    0.000000000
   20  C  1 YY      0.000000000    0.000000000    0.000000000    0.000000000    0.000000000
   21  C  1 ZZ      0.000000000    0.000000000    0.000000000    0.000000000    0.000000000
   22  C  1 XY      0.000000000    0.000000000    0.000000000    0.000000000    0.000000000
   23  C  1 XZ      0.000000000    0.000000000    0.000000000    0.000000000    0.000000000
   24  C  1 YZ      0.000000000    0.000000000    0.000000000    0.000000000    0.000000000

                        6              7              8              9             10
                  100.262087522   28.593337101   26.788726500   19.133634173    4.056614962
                       AG             AG             AG             AG             AG  
    1  C  1  S     59.710322157    6.463247743   -1.181971329    0.078101764   -0.347064955
    2  C  1  S    -38.427422662    1.241554260   -3.428454999   -2.028879907    0.195271521
    3  C  1  S    -31.841041799   -6.201223936    3.144238436    1.662416857   -0.534588305
    4  C  1  S     20.431256652   -6.788122510    3.300357332    0.044958769    0.903056087
    5  C  1  S    -15.167735788    9.033937575   -2.830708919    2.438673519    0.269384537
    6  C  1  S     -8.874225031   10.845889378    4.586635336   -1.449067436   -0.282802373
    7  C  1  X      0.000000000    0.000000000    0.000000000    0.000000000    0.000000000
    8  C  1  Y      0.000000000    0.000000000    0.000000000    0.000000000    0.000000000
    9  C  1  Z      0.000000000    0.000000000    0.000000000    0.000000000    0.000000000
   10  C  1  X      0.000000000    0.000000000    0.000000000    0.000000000    0.000000000
   11  C  1  Y      0.000000000    0.000000000    0.000000000    0.000000000    0.000000000
   12  C  1  Z      0.000000000    0.000000000    0.000000000    0.000000000    0.000000000
   13  C  1  X      0.000000000    0.000000000    0.000000000    0.000000000    0.000000000
   14  C  1  Y      0.000000000    0.000000000    0.000000000    0.000000000    0.000000000
   15  C  1  Z      0.000000000    0.000000000    0.000000000    0.000000000    0.000000000
   16  C  1  X      0.000000000    0.000000000    0.000000000    0.000000000    0.000000000
   17  C  1  Y      0.000000000    0.000000000    0.000000000    0.000000000    0.000000000
   18  C  1  Z      0.000000000    0.000000000    0.000000000    0.000000000    0.000000000
   19  C  1 XX      7.534211401   -7.244424794   -1.361430807   -0.288260683   -0.250751831
   20  C  1 YY      7.534211401   -7.244424794   -1.361430807   -0.288260683   -0.250751831
   21  C  1 ZZ      7.534211401   -7.244424794   -1.361430807   -0.288260683   -0.250751831
   22  C  1 XY      0.000000000    0.000000000    0.000000000    0.000000000    0.000000000
   23  C  1 XZ      0.000000000    0.000000000    0.000000000    0.000000000    0.000000000
   24  C  1 YZ      0.000000000    0.000000000    0.000000000    0.000000000    0.000000000

                       11             12             13             14             15
                   -1.998938916   -1.998938916    5.286866016    8.775484094    3.783627802
                       AG             AG             B3U            B3U            B3U 
    1  C  1  S      0.000000000    0.000000000    0.000000000    0.000000000    0.000000000
    2  C  1  S      0.000000000    0.000000000    0.000000000    0.000000000    0.000000000
    3  C  1  S      0.000000000    0.000000000    0.000000000    0.000000000    0.000000000
    4  C  1  S      0.000000000    0.000000000    0.000000000    0.000000000    0.000000000
    5  C  1  S      0.000000000    0.000000000    0.000000000    0.000000000    0.000000000
    6  C  1  S      0.000000000    0.000000000    0.000000000    0.000000000    0.000000000
    7  C  1  X      0.000000000    0.000000000   -2.446124654    1.129294813    0.404521381
    8  C  1  Y      0.000000000    0.000000000    0.000000000    0.000000000    0.000000000
    9  C  1  Z      0.000000000    0.000000000    0.000000000    0.000000000    0.000000000
   10  C  1  X      0.000000000    0.000000000    3.586045686    0.400944583   -0.149273267
   11  C  1  Y      0.000000000    0.000000000    0.000000000    0.000000000    0.000000000
   12  C  1  Z      0.000000000    0.000000000    0.000000000    0.000000000    0.000000000
   13  C  1  X      0.000000000    0.000000000   -2.309959680   -1.007308286   -0.365814351
   14  C  1  Y      0.000000000    0.000000000    0.000000000    0.000000000    0.000000000
   15  C  1  Z      0.000000000    0.000000000    0.000000000    0.000000000    0.000000000
   16  C  1  X      0.000000000    0.000000000    0.958364503   -1.052478496    0.722868913
   17  C  1  Y      0.000000000    0.000000000    0.000000000    0.000000000    0.000000000
   18  C  1  Z      0.000000000    0.000000000    0.000000000    0.000000000    0.000000000
   19  C  1 XX     -0.513578416   -0.858042662    0.000000000    0.000000000    0.000000000
   20  C  1 YY     -0.486297535    0.873793287    0.000000000    0.000000000    0.000000000
   21  C  1 ZZ      0.999875951   -0.015750624    0.000000000    0.000000000    0.000000000
   22  C  1 XY      0.000000000    0.000000000    0.000000000    0.000000000    0.000000000
   23  C  1 XZ      0.000000000    0.000000000    0.000000000    0.000000000    0.000000000
   24  C  1 YZ      0.000000000    0.000000000    0.000000000    0.000000000    0.000000000

                       16             17             18             19             20
                   -1.998938916   -1.998938916    5.286866016    8.775484094    3.783627802
                       B3G            B1G            B1U            B1U            B1U 
    1  C  1  S      0.000000000    0.000000000    0.000000000    0.000000000    0.000000000
    2  C  1  S      0.000000000    0.000000000    0.000000000    0.000000000    0.000000000
    3  C  1  S      0.000000000    0.000000000    0.000000000    0.000000000    0.000000000
    4  C  1  S      0.000000000    0.000000000    0.000000000    0.000000000    0.000000000
    5  C  1  S      0.000000000    0.000000000    0.000000000    0.000000000    0.000000000
    6  C  1  S      0.000000000    0.000000000    0.000000000    0.000000000    0.000000000
    7  C  1  X      0.000000000    0.000000000    0.000000000    0.000000000    0.000000000
    8  C  1  Y      0.000000000    0.000000000    0.000000000    0.000000000    0.000000000
    9  C  1  Z      0.000000000    0.000000000   -2.446124654    1.129294813    0.404521381
   10  C  1  X      0.000000000    0.000000000    0.000000000    0.000000000    0.000000000
   11  C  1  Y      0.000000000    0.000000000    0.000000000    0.000000000    0.000000000
   12  C  1  Z      0.000000000    0.000000000    3.586045686    0.400944583   -0.149273267
   13  C  1  X      0.000000000    0.000000000    0.000000000    0.000000000    0.000000000
   14  C  1  Y      0.000000000    0.000000000    0.000000000    0.000000000    0.000000000
   15  C  1  Z      0.000000000    0.000000000   -2.309959680   -1.007308286   -0.365814351
   16  C  1  X      0.000000000    0.000000000    0.000000000    0.000000000    0.000000000
   17  C  1  Y      0.000000000    0.000000000    0.000000000    0.000000000    0.000000000
   18  C  1  Z      0.000000000    0.000000000    0.958364503   -1.052478496    0.722868913
   19  C  1 XX      0.000000000    0.000000000    0.000000000    0.000000000    0.000000000
   20  C  1 YY      0.000000000    0.000000000    0.000000000    0.000000000    0.000000000
   21  C  1 ZZ      0.000000000    0.000000000    0.000000000    0.000000000    0.000000000
   22  C  1 XY      0.000000000    1.000000000    0.000000000    0.000000000    0.000000000
   23  C  1 XZ      0.000000000    0.000000000    0.000000000    0.000000000    0.000000000
   24  C  1 YZ      1.000000000    0.000000000    0.000000000    0.000000000    0.000000000

                       21             22             23             24
                    5.286866016    8.775484094    3.783627802   -1.998938916
                       B2U            B2U            B2U            B2G 
    1  C  1  S      0.000000000    0.000000000    0.000000000    0.000000000
    2  C  1  S      0.000000000    0.000000000    0.000000000    0.000000000
    3  C  1  S      0.000000000    0.000000000    0.000000000    0.000000000
    4  C  1  S      0.000000000    0.000000000    0.000000000    0.000000000
    5  C  1  S      0.000000000    0.000000000    0.000000000    0.000000000
    6  C  1  S      0.000000000    0.000000000    0.000000000    0.000000000
    7  C  1  X      0.000000000    0.000000000    0.000000000    0.000000000
    8  C  1  Y     -2.446124654    1.129294813    0.404521381    0.000000000
    9  C  1  Z      0.000000000    0.000000000    0.000000000    0.000000000
   10  C  1  X      0.000000000    0.000000000    0.000000000    0.000000000
   11  C  1  Y      3.586045686    0.400944583   -0.149273267    0.000000000
   12  C  1  Z      0.000000000    0.000000000    0.000000000    0.000000000
   13  C  1  X      0.000000000    0.000000000    0.000000000    0.000000000
   14  C  1  Y     -2.309959680   -1.007308286   -0.365814351    0.000000000
   15  C  1  Z      0.000000000    0.000000000    0.000000000    0.000000000
   16  C  1  X      0.000000000    0.000000000    0.000000000    0.000000000
   17  C  1  Y      0.958364503   -1.052478496    0.722868913    0.000000000
   18  C  1  Z      0.000000000    0.000000000    0.000000000    0.000000000
   19  C  1 XX      0.000000000    0.000000000    0.000000000    0.000000000
   20  C  1 YY      0.000000000    0.000000000    0.000000000    0.000000000
   21  C  1 ZZ      0.000000000    0.000000000    0.000000000    0.000000000
   22  C  1 XY      0.000000000    0.000000000    0.000000000    0.000000000
   23  C  1 XZ      0.000000000    0.000000000    0.000000000    1.000000000
   24  C  1 YZ      0.000000000    0.000000000    0.000000000    0.000000000
 EIGENVALUES ARE DIAGONAL OF 1E- H IN MO BASIS

 SYMMETRIES FOR INITIAL GUESS ORBITALS FOLLOW.   BETA SET(S).
     2 ORBITALS ARE OCCUPIED (    1 CORE ORBITALS).
     2=AG       3=B3U      4=B2U      5=B1U      6=AG       7=AG       8=AG  
     9=AG      10=AG      11=AG      12=AG  

                              ----------------------
                              INITIAL GUESS ORBITALS
                              ----------------------

                              ----------------------
                              INITIAL GUESS ORBITALS
                              ----------------------

                              ASSIGNED OCCUPANCIES

                  1.000000   1.000000   0.000000   0.000000   0.000000
                  0.000000   0.000000   0.000000   0.000000   0.000000
                  0.000000   0.000000   0.000000   0.000000   0.000000
                  0.000000   0.000000   0.000000   0.000000   0.000000
                  0.000000   0.000000   0.000000   0.000000

                        1              2              3              4              5
                  -17.502095635   -4.404450937   -3.613931543   -3.613931543   -3.613931543
                       AG             AG             B3U            B2U            B1U 
    1  C  1  S     -0.569566175   -0.051045847    0.000000000    0.000000000    0.000000000
    2  C  1  S      1.391946684   -0.054173584    0.000000000    0.000000000    0.000000000
    3  C  1  S      0.359624487    0.049538801    0.000000000    0.000000000    0.000000000
    4  C  1  S     -0.205330744   -0.040497049    0.000000000    0.000000000    0.000000000
    5  C  1  S     -0.094016944    0.690384772    0.000000000    0.000000000    0.000000000
    6  C  1  S     -0.073392213    0.380092047    0.000000000    0.000000000    0.000000000
    7  C  1  X      0.000000000    0.000000000    0.058620169    0.000000000    0.000000000
    8  C  1  Y      0.000000000    0.000000000    0.000000000    0.058620169    0.000000000
    9  C  1  Z      0.000000000    0.000000000    0.000000000    0.000000000    0.058620169
   10  C  1  X      0.000000000    0.000000000    0.725906833    0.000000000    0.000000000
   11  C  1  Y      0.000000000    0.000000000    0.000000000    0.725906833    0.000000000
   12  C  1  Z      0.000000000    0.000000000    0.000000000    0.000000000    0.725906833
   13  C  1  X      0.000000000    0.000000000    0.258619527    0.000000000    0.000000000
   14  C  1  Y      0.000000000    0.000000000    0.000000000    0.258619527    0.000000000
   15  C  1  Z      0.000000000    0.000000000    0.000000000    0.000000000    0.258619527
   16  C  1  X      0.000000000    0.000000000    0.011854827    0.000000000    0.000000000
   17  C  1  Y      0.000000000    0.000000000    0.000000000    0.011854827    0.000000000
   18  C  1  Z      0.000000000    0.000000000    0.000000000    0.000000000    0.011854827
   19  C  1 XX      0.000000000    0.000000000    0.000000000    0.000000000    0.000000000
   20  C  1 YY      0.000000000    0.000000000    0.000000000    0.000000000    0.000000000
   21  C  1 ZZ      0.000000000    0.000000000    0.000000000    0.000000000    0.000000000
   22  C  1 XY      0.000000000    0.000000000    0.000000000    0.000000000    0.000000000
   23  C  1 XZ      0.000000000    0.000000000    0.000000000    0.000000000    0.000000000
   24  C  1 YZ      0.000000000    0.000000000    0.000000000    0.000000000    0.000000000

                        6              7              8              9             10
                  100.262087522   28.593337101   26.788726500   19.133634173    4.056614962
                       AG             AG             AG             AG             AG  
    1  C  1  S     59.710322157    6.463247743   -1.181971329    0.078101764   -0.347064955
    2  C  1  S    -38.427422662    1.241554260   -3.428454999   -2.028879907    0.195271521
    3  C  1  S    -31.841041799   -6.201223936    3.144238436    1.662416857   -0.534588305
    4  C  1  S     20.431256652   -6.788122510    3.300357332    0.044958769    0.903056087
    5  C  1  S    -15.167735788    9.033937575   -2.830708919    2.438673519    0.269384537
    6  C  1  S     -8.874225031   10.845889378    4.586635336   -1.449067436   -0.282802373
    7  C  1  X      0.000000000    0.000000000    0.000000000    0.000000000    0.000000000
    8  C  1  Y      0.000000000    0.000000000    0.000000000    0.000000000    0.000000000
    9  C  1  Z      0.000000000    0.000000000    0.000000000    0.000000000    0.000000000
   10  C  1  X      0.000000000    0.000000000    0.000000000    0.000000000    0.000000000
   11  C  1  Y      0.000000000    0.000000000    0.000000000    0.000000000    0.000000000
   12  C  1  Z      0.000000000    0.000000000    0.000000000    0.000000000    0.000000000
   13  C  1  X      0.000000000    0.000000000    0.000000000    0.000000000    0.000000000
   14  C  1  Y      0.000000000    0.000000000    0.000000000    0.000000000    0.000000000
   15  C  1  Z      0.000000000    0.000000000    0.000000000    0.000000000    0.000000000
   16  C  1  X      0.000000000    0.000000000    0.000000000    0.000000000    0.000000000
   17  C  1  Y      0.000000000    0.000000000    0.000000000    0.000000000    0.000000000
   18  C  1  Z      0.000000000    0.000000000    0.000000000    0.000000000    0.000000000
   19  C  1 XX      7.534211401   -7.244424794   -1.361430807   -0.288260683   -0.250751831
   20  C  1 YY      7.534211401   -7.244424794   -1.361430807   -0.288260683   -0.250751831
   21  C  1 ZZ      7.534211401   -7.244424794   -1.361430807   -0.288260683   -0.250751831
   22  C  1 XY      0.000000000    0.000000000    0.000000000    0.000000000    0.000000000
   23  C  1 XZ      0.000000000    0.000000000    0.000000000    0.000000000    0.000000000
   24  C  1 YZ      0.000000000    0.000000000    0.000000000    0.000000000    0.000000000

                       11             12             13             14             15
                   -1.998938916   -1.998938916    5.286866016    8.775484094    3.783627802
                       AG             AG             B3U            B3U            B3U 
    1  C  1  S      0.000000000    0.000000000    0.000000000    0.000000000    0.000000000
    2  C  1  S      0.000000000    0.000000000    0.000000000    0.000000000    0.000000000
    3  C  1  S      0.000000000    0.000000000    0.000000000    0.000000000    0.000000000
    4  C  1  S      0.000000000    0.000000000    0.000000000    0.000000000    0.000000000
    5  C  1  S      0.000000000    0.000000000    0.000000000    0.000000000    0.000000000
    6  C  1  S      0.000000000    0.000000000    0.000000000    0.000000000    0.000000000
    7  C  1  X      0.000000000    0.000000000   -2.446124654    1.129294813    0.404521381
    8  C  1  Y      0.000000000    0.000000000    0.000000000    0.000000000    0.000000000
    9  C  1  Z      0.000000000    0.000000000    0.000000000    0.000000000    0.000000000
   10  C  1  X      0.000000000    0.000000000    3.586045686    0.400944583   -0.149273267
   11  C  1  Y      0.000000000    0.000000000    0.000000000    0.000000000    0.000000000
   12  C  1  Z      0.000000000    0.000000000    0.000000000    0.000000000    0.000000000
   13  C  1  X      0.000000000    0.000000000   -2.309959680   -1.007308286   -0.365814351
   14  C  1  Y      0.000000000    0.000000000    0.000000000    0.000000000    0.000000000
   15  C  1  Z      0.000000000    0.000000000    0.000000000    0.000000000    0.000000000
   16  C  1  X      0.000000000    0.000000000    0.958364503   -1.052478496    0.722868913
   17  C  1  Y      0.000000000    0.000000000    0.000000000    0.000000000    0.000000000
   18  C  1  Z      0.000000000    0.000000000    0.000000000    0.000000000    0.000000000
   19  C  1 XX     -0.513578416   -0.858042662    0.000000000    0.000000000    0.000000000
   20  C  1 YY     -0.486297535    0.873793287    0.000000000    0.000000000    0.000000000
   21  C  1 ZZ      0.999875951   -0.015750624    0.000000000    0.000000000    0.000000000
   22  C  1 XY      0.000000000    0.000000000    0.000000000    0.000000000    0.000000000
   23  C  1 XZ      0.000000000    0.000000000    0.000000000    0.000000000    0.000000000
   24  C  1 YZ      0.000000000    0.000000000    0.000000000    0.000000000    0.000000000

                       16             17             18             19             20
                   -1.998938916   -1.998938916    5.286866016    8.775484094    3.783627802
                       B3G            B1G            B1U            B1U            B1U 
    1  C  1  S      0.000000000    0.000000000    0.000000000    0.000000000    0.000000000
    2  C  1  S      0.000000000    0.000000000    0.000000000    0.000000000    0.000000000
    3  C  1  S      0.000000000    0.000000000    0.000000000    0.000000000    0.000000000
    4  C  1  S      0.000000000    0.000000000    0.000000000    0.000000000    0.000000000
    5  C  1  S      0.000000000    0.000000000    0.000000000    0.000000000    0.000000000
    6  C  1  S      0.000000000    0.000000000    0.000000000    0.000000000    0.000000000
    7  C  1  X      0.000000000    0.000000000    0.000000000    0.000000000    0.000000000
    8  C  1  Y      0.000000000    0.000000000    0.000000000    0.000000000    0.000000000
    9  C  1  Z      0.000000000    0.000000000   -2.446124654    1.129294813    0.404521381
   10  C  1  X      0.000000000    0.000000000    0.000000000    0.000000000    0.000000000
   11  C  1  Y      0.000000000    0.000000000    0.000000000    0.000000000    0.000000000
   12  C  1  Z      0.000000000    0.000000000    3.586045686    0.400944583   -0.149273267
   13  C  1  X      0.000000000    0.000000000    0.000000000    0.000000000    0.000000000
   14  C  1  Y      0.000000000    0.000000000    0.000000000    0.000000000    0.000000000
   15  C  1  Z      0.000000000    0.000000000   -2.309959680   -1.007308286   -0.365814351
   16  C  1  X      0.000000000    0.000000000    0.000000000    0.000000000    0.000000000
   17  C  1  Y      0.000000000    0.000000000    0.000000000    0.000000000    0.000000000
   18  C  1  Z      0.000000000    0.000000000    0.958364503   -1.052478496    0.722868913
   19  C  1 XX      0.000000000    0.000000000    0.000000000    0.000000000    0.000000000
   20  C  1 YY      0.000000000    0.000000000    0.000000000    0.000000000    0.000000000
   21  C  1 ZZ      0.000000000    0.000000000    0.000000000    0.000000000    0.000000000
   22  C  1 XY      0.000000000    1.000000000    0.000000000    0.000000000    0.000000000
   23  C  1 XZ      0.000000000    0.000000000    0.000000000    0.000000000    0.000000000
   24  C  1 YZ      1.000000000    0.000000000    0.000000000    0.000000000    0.000000000

                       21             22             23             24
                    5.286866016    8.775484094    3.783627802   -1.998938916
                       B2U            B2U            B2U            B2G 
    1  C  1  S      0.000000000    0.000000000    0.000000000    0.000000000
    2  C  1  S      0.000000000    0.000000000    0.000000000    0.000000000
    3  C  1  S      0.000000000    0.000000000    0.000000000    0.000000000
    4  C  1  S      0.000000000    0.000000000    0.000000000    0.000000000
    5  C  1  S      0.000000000    0.000000000    0.000000000    0.000000000
    6  C  1  S      0.000000000    0.000000000    0.000000000    0.000000000
    7  C  1  X      0.000000000    0.000000000    0.000000000    0.000000000
    8  C  1  Y     -2.446124654    1.129294813    0.404521381    0.000000000
    9  C  1  Z      0.000000000    0.000000000    0.000000000    0.000000000
   10  C  1  X      0.000000000    0.000000000    0.000000000    0.000000000
   11  C  1  Y      3.586045686    0.400944583   -0.149273267    0.000000000
   12  C  1  Z      0.000000000    0.000000000    0.000000000    0.000000000
   13  C  1  X      0.000000000    0.000000000    0.000000000    0.000000000
   14  C  1  Y     -2.309959680   -1.007308286   -0.365814351    0.000000000
   15  C  1  Z      0.000000000    0.000000000    0.000000000    0.000000000
   16  C  1  X      0.000000000    0.000000000    0.000000000    0.000000000
   17  C  1  Y      0.958364503   -1.052478496    0.722868913    0.000000000
   18  C  1  Z      0.000000000    0.000000000    0.000000000    0.000000000
   19  C  1 XX      0.000000000    0.000000000    0.000000000    0.000000000
   20  C  1 YY      0.000000000    0.000000000    0.000000000    0.000000000
   21  C  1 ZZ      0.000000000    0.000000000    0.000000000    0.000000000
   22  C  1 XY      0.000000000    0.000000000    0.000000000    0.000000000
   23  C  1 XZ      0.000000000    0.000000000    0.000000000    1.000000000
   24  C  1 YZ      0.000000000    0.000000000    0.000000000    0.000000000
 ...... END OF INITIAL ORBITAL SELECTION ......
 STEP CPU TIME =     0.02 TOTAL CPU TIME =        0.0 (    0.0 MIN)
 TOTAL WALL CLOCK TIME=        0.0 SECONDS, CPU UTILIZATION IS 100.00%

                    ----------------------
                    AO INTEGRAL TECHNOLOGY
                    ----------------------
     S,P,L SHELL ROTATED AXIS INTEGRALS, REPROGRAMMED BY
        KAZUYA ISHIMURA (IMS) AND JOSE SIERRA (SYNSTAR).
     S,P,D,L SHELL ROTATED AXIS INTEGRALS PROGRAMMED BY
        KAZUYA ISHIMURA (INSTITUTE FOR MOLECULAR SCIENCE).
     S,P,D,F,G SHELL TO TOTAL QUARTET ANGULAR MOMENTUM SUM 5,
        ERIC PROGRAM BY GRAHAM FLETCHER (ELORET AND NASA ADVANCED
        SUPERCOMPUTING DIVISION, AMES RESEARCH CENTER).
     S,P,D,F,G,L SHELL GENERAL RYS QUADRATURE PROGRAMMED BY
        MICHEL DUPUIS (PACIFIC NORTHWEST NATIONAL LABORATORY).

          --------------------
          2 ELECTRON INTEGRALS
          --------------------

 THE -PK- OPTION IS OFF, THE INTEGRALS ARE NOT IN SUPERMATRIX FORM.
 STORING   15000 INTEGRALS/RECORD ON DISK, USING 12 BYTES/INTEGRAL.
 TWO ELECTRON INTEGRAL EVALUATION REQUIRES   60762 WORDS OF MEMORY.
 II,JST,KST,LST =  1  1  1  1 NREC =         1 INTLOC =    1
 II,JST,KST,LST =  2  1  1  1 NREC =         1 INTLOC =    2
 II,JST,KST,LST =  3  1  1  1 NREC =         1 INTLOC =    7
 II,JST,KST,LST =  4  1  1  1 NREC =         1 INTLOC =   22
 II,JST,KST,LST =  5  1  1  1 NREC =         1 INTLOC =   56
 II,JST,KST,LST =  6  1  1  1 NREC =         1 INTLOC =  121
 II,JST,KST,LST =  7  1  1  1 NREC =         1 INTLOC =  232
 II,JST,KST,LST =  8  1  1  1 NREC =         1 INTLOC =  367
 II,JST,KST,LST =  9  1  1  1 NREC =         1 INTLOC =  730
 II,JST,KST,LST = 10  1  1  1 NREC =         1 INTLOC = 1429
 II,JST,KST,LST = 11  1  1  1 NREC =         1 INTLOC = 2635
 TOTAL NUMBER OF NONZERO TWO-ELECTRON INTEGRALS =                7182
          1 INTEGRAL RECORDS WERE STORED ON DISK FILE  8.
  ...... END OF TWO-ELECTRON INTEGRALS .....
 STEP CPU TIME =    11.96 TOTAL CPU TIME =       12.0 (    0.2 MIN)
 TOTAL WALL CLOCK TIME=       12.8 SECONDS, CPU UTILIZATION IS  93.83%

          ---------------------------
                 ROHF SCF CALCULATION
          ---------------------------

     NUCLEAR ENERGY =         0.0000000000
     MAXIT =200     NPUNCH=  2     MULT=  3
     EXTRAP=T  DAMP=F  SHIFT=F  RSTRCT=F  DIIS=F  SOSCF=T
     DENSITY MATRIX CONV=  1.00E-05
     ROHF CANONICALIZATION PARAMETERS
             C-C     O-O     V-V
     ALPHA -0.5000  0.5000  1.5000
     BETA   1.5000  0.5000 -0.5000
     SOSCF WILL OPTIMIZE      84 ORBITAL ROTATION ANGLES. SOGTOL= 2.500E-01
     MEMORY REQUIRED FOR UHF/ROHF STEP=     36004 WORDS.

 ITER EX     TOTAL ENERGY       E CHANGE  DENSITY CHANGE    ORB. GRAD 
   1  0      -37.611788357   -37.611788357   2.104976504   0.000000000
          ---------------START SECOND ORDER SCF---------------
   2  1      -37.680804718    -0.069016361   0.488867452   0.046821581
   3  2      -37.686195902    -0.005391184   0.179986869   0.024109465
   4  3      -37.688486668    -0.002290766   0.007535492   0.001003041
   5  4      -37.688487760    -0.000001091   0.000433860   0.000104095
   6  5      -37.688487779    -0.000000019   0.000090470   0.000007291
   7  6      -37.688487779     0.000000000   0.000006495   0.000001079
   8  7      -37.688487779     0.000000000   0.000000559   0.000000032

          -----------------
          DENSITY CONVERGED
          -----------------

 FINAL ROHF ENERGY IS      -37.6884877793 AFTER   8 ITERATIONS

          --------------------
          SPIN SZ   =    1.000
          S-SQUARED =    2.000
          --------------------

          ------------
          EIGENVECTORS
          ------------

                        1              2              3              4              5
                  -11.281809097   -0.474581140   -0.129199674   -0.129199674    0.004551113
                       AG             AG             B3U            B2U            B1U 
    1  C  1  S      0.120048461    0.038385774    0.000000000    0.000000000    0.000000000
    2  C  1  S      0.898177898   -0.258932355    0.000000000    0.000000000    0.000000000
    3  C  1  S      0.008458999   -0.022585943    0.000000000    0.000000000    0.000000000
    4  C  1  S     -0.030508179   -0.050511232    0.000000000    0.000000000    0.000000000
    5  C  1  S      0.016875503    0.576894040    0.000000000    0.000000000    0.000000000
    6  C  1  S      0.005998645    0.574465779    0.000000000    0.000000000    0.000000000
    7  C  1  X      0.000000000    0.000000000    0.090715557    0.000000000    0.000000000
    8  C  1  Y      0.000000000    0.000000000    0.000000000    0.090715557    0.000000000
    9  C  1  Z      0.000000000    0.000000000    0.000000000    0.000000000    0.120037002
   10  C  1  X      0.000000000    0.000000000    0.524504307    0.000000000    0.000000000
   11  C  1  Y      0.000000000    0.000000000    0.000000000    0.524504307    0.000000000
   12  C  1  Z      0.000000000    0.000000000    0.000000000    0.000000000    0.096583144
   13  C  1  X      0.000000000    0.000000000    0.452790510    0.000000000    0.000000000
   14  C  1  Y      0.000000000    0.000000000    0.000000000    0.452790510    0.000000000
   15  C  1  Z      0.000000000    0.000000000    0.000000000    0.000000000    0.856435650
   16  C  1  X      0.000000000    0.000000000    0.001742611    0.000000000    0.000000000
   17  C  1  Y      0.000000000    0.000000000    0.000000000    0.001742611    0.000000000
   18  C  1  Z      0.000000000    0.000000000    0.000000000    0.000000000   -0.004931193
   19  C  1 XX     -0.007573660   -0.021695392    0.000000000    0.000000000    0.000000000
   20  C  1 YY     -0.007573660   -0.021695392    0.000000000    0.000000000    0.000000000
   21  C  1 ZZ     -0.008164804   -0.026784946    0.000000000    0.000000000    0.000000000
   22  C  1 XY      0.000000000    0.000000000    0.000000000    0.000000000    0.000000000
   23  C  1 XZ      0.000000000    0.000000000    0.000000000    0.000000000    0.000000000
   24  C  1 YZ      0.000000000    0.000000000    0.000000000    0.000000000    0.000000000

                        6              7              8              9             10
                    0.255480916    0.434638991    0.434638991    0.542173107    1.120489862
                       AG             B2U            B3U            B1U            B1G 
    1  C  1  S     -1.439480311    0.000000000    0.000000000    0.000000000    0.000000000
    2  C  1  S      1.475705995    0.000000000    0.000000000    0.000000000    0.000000000
    3  C  1  S      0.577155513    0.000000000    0.000000000    0.000000000    0.000000000
    4  C  1  S     -1.639199095    0.000000000    0.000000000    0.000000000    0.000000000
    5  C  1  S      0.356386904    0.000000000    0.000000000    0.000000000    0.000000000
    6  C  1  S      7.690710002    0.000000000    0.000000000    0.000000000    0.000000000
    7  C  1  X      0.000000000    0.000000000   -0.267768606    0.000000000    0.000000000
    8  C  1  Y      0.000000000   -0.267768606    0.000000000    0.000000000    0.000000000
    9  C  1  Z      0.000000000    0.000000000    0.000000000   -0.294733886    0.000000000
   10  C  1  X      0.000000000    0.000000000    2.160046252    0.000000000    0.000000000
   11  C  1  Y      0.000000000    2.160046252    0.000000000    0.000000000    0.000000000
   12  C  1  Z      0.000000000    0.000000000    0.000000000    2.284818564    0.000000000
   13  C  1  X      0.000000000    0.000000000   -2.072141565    0.000000000    0.000000000
   14  C  1  Y      0.000000000   -2.072141565    0.000000000    0.000000000    0.000000000
   15  C  1  Z      0.000000000    0.000000000    0.000000000   -1.965017761    0.000000000
   16  C  1  X      0.000000000    0.000000000    0.045501078    0.000000000    0.000000000
   17  C  1  Y      0.000000000    0.045501078    0.000000000    0.000000000    0.000000000
   18  C  1  Z      0.000000000    0.000000000    0.000000000    0.051061173    0.000000000
   19  C  1 XX     -3.277039785    0.000000000    0.000000000    0.000000000    0.000000000
   20  C  1 YY     -3.277039785    0.000000000    0.000000000    0.000000000    0.000000000
   21  C  1 ZZ     -3.256978460    0.000000000    0.000000000    0.000000000    0.000000000
   22  C  1 XY      0.000000000    0.000000000    0.000000000    0.000000000    1.000000000
   23  C  1 XZ      0.000000000    0.000000000    0.000000000    0.000000000    0.000000000
   24  C  1 YZ      0.000000000    0.000000000    0.000000000    0.000000000    0.000000000

                       11             12             13             14             15
                    1.120489862    1.187116387    1.187116387    1.209917885    1.486138946
                       AG             B3G            B2G            AG             AG  
    1  C  1  S      0.000000000    0.000000000    0.000000000    0.155651721   -4.308458417
    2  C  1  S      0.000000000    0.000000000    0.000000000   -0.139935101    3.785877554
    3  C  1  S      0.000000000    0.000000000    0.000000000   -0.061811991    1.711545908
    4  C  1  S      0.000000000    0.000000000    0.000000000    0.181367703   -5.000350600
    5  C  1  S      0.000000000    0.000000000    0.000000000   -0.241618825    7.436664932
    6  C  1  S      0.000000000    0.000000000    0.000000000   -0.389782557    8.949030983
    7  C  1  X      0.000000000    0.000000000    0.000000000    0.000000000    0.000000000
    8  C  1  Y      0.000000000    0.000000000    0.000000000    0.000000000    0.000000000
    9  C  1  Z      0.000000000    0.000000000    0.000000000    0.000000000    0.000000000
   10  C  1  X      0.000000000    0.000000000    0.000000000    0.000000000    0.000000000
   11  C  1  Y      0.000000000    0.000000000    0.000000000    0.000000000    0.000000000
   12  C  1  Z      0.000000000    0.000000000    0.000000000    0.000000000    0.000000000
   13  C  1  X      0.000000000    0.000000000    0.000000000    0.000000000    0.000000000
   14  C  1  Y      0.000000000    0.000000000    0.000000000    0.000000000    0.000000000
   15  C  1  Z      0.000000000    0.000000000    0.000000000    0.000000000    0.000000000
   16  C  1  X      0.000000000    0.000000000    0.000000000    0.000000000    0.000000000
   17  C  1  Y      0.000000000    0.000000000    0.000000000    0.000000000    0.000000000
   18  C  1  Z      0.000000000    0.000000000    0.000000000    0.000000000    0.000000000
   19  C  1 XX      0.866025404    0.000000000    0.000000000   -0.256172128   -6.215239143
   20  C  1 YY     -0.866025404    0.000000000    0.000000000   -0.256172128   -6.215239143
   21  C  1 ZZ      0.000000000    0.000000000    0.000000000    1.242897276   -6.166637265
   22  C  1 XY      0.000000000    0.000000000    0.000000000    0.000000000    0.000000000
   23  C  1 XZ      0.000000000    0.000000000    1.000000000    0.000000000    0.000000000
   24  C  1 YZ      0.000000000    1.000000000    0.000000000    0.000000000    0.000000000

                       16             17             18             19             20
                    3.496011394    3.496011394    3.567196091    6.255350168   27.641073154
                       B2U            B3U            B1U            AG             AG  
    1  C  1  S      0.000000000    0.000000000    0.000000000   13.529652802   33.071926980
    2  C  1  S      0.000000000    0.000000000    0.000000000  -12.968841227  -24.666143054
    3  C  1  S      0.000000000    0.000000000    0.000000000   -5.511943150  -15.067192014
    4  C  1  S      0.000000000    0.000000000    0.000000000   11.897975352   13.257142145
    5  C  1  S      0.000000000    0.000000000    0.000000000  -11.458972013   -9.297861403
    6  C  1  S      0.000000000    0.000000000    0.000000000   -6.767830375   -4.668468377
    7  C  1  X      0.000000000   -2.095102645    0.000000000    0.000000000    0.000000000
    8  C  1  Y     -2.095102645    0.000000000    0.000000000    0.000000000    0.000000000
    9  C  1  Z      0.000000000    0.000000000   -2.090858010    0.000000000    0.000000000
   10  C  1  X      0.000000000    2.592792944    0.000000000    0.000000000    0.000000000
   11  C  1  Y      2.592792944    0.000000000    0.000000000    0.000000000    0.000000000
   12  C  1  Z      0.000000000    0.000000000    2.537264505    0.000000000    0.000000000
   13  C  1  X      0.000000000   -1.283014666    0.000000000    0.000000000    0.000000000
   14  C  1  Y     -1.283014666    0.000000000    0.000000000    0.000000000    0.000000000
   15  C  1  Z      0.000000000    0.000000000   -1.245467993    0.000000000    0.000000000
   16  C  1  X      0.000000000    0.246596380    0.000000000    0.000000000    0.000000000
   17  C  1  Y      0.246596380    0.000000000    0.000000000    0.000000000    0.000000000
   18  C  1  Z      0.000000000    0.000000000    0.246254473    0.000000000    0.000000000
   19  C  1 XX      0.000000000    0.000000000    0.000000000    5.817808867    4.223294937
   20  C  1 YY      0.000000000    0.000000000    0.000000000    5.817808867    4.223294937
   21  C  1 ZZ      0.000000000    0.000000000    0.000000000    5.818067213    4.223345259
   22  C  1 XY      0.000000000    0.000000000    0.000000000    0.000000000    0.000000000
   23  C  1 XZ      0.000000000    0.000000000    0.000000000    0.000000000    0.000000000
   24  C  1 YZ      0.000000000    0.000000000    0.000000000    0.000000000    0.000000000

                       21             22             23             24
                   30.143187516   30.143187516   30.145695264  172.343621251
                       B3U            B2U            B1U            AG  
    1  C  1  S      0.000000000    0.000000000    0.000000000   48.077727440
    2  C  1  S      0.000000000    0.000000000    0.000000000  -26.496115258
    3  C  1  S      0.000000000    0.000000000    0.000000000  -28.367337945
    4  C  1  S      0.000000000    0.000000000    0.000000000   11.411750738
    5  C  1  S      0.000000000    0.000000000    0.000000000   -7.253246344
    6  C  1  S      0.000000000    0.000000000    0.000000000   -3.527004654
    7  C  1  X      1.719453995    0.000000000    0.000000000    0.000000000
    8  C  1  Y      0.000000000    1.719453995    0.000000000    0.000000000
    9  C  1  Z      0.000000000    0.000000000    1.718412729    0.000000000
   10  C  1  X     -1.380660578    0.000000000    0.000000000    0.000000000
   11  C  1  Y      0.000000000   -1.380660578    0.000000000    0.000000000
   12  C  1  Z      0.000000000    0.000000000   -1.379227362    0.000000000
   13  C  1  X      0.637472638    0.000000000    0.000000000    0.000000000
   14  C  1  Y      0.000000000    0.637472638    0.000000000    0.000000000
   15  C  1  Z      0.000000000    0.000000000    0.636647913    0.000000000
   16  C  1  X     -1.576696022    0.000000000    0.000000000    0.000000000
   17  C  1  Y      0.000000000   -1.576696022    0.000000000    0.000000000
   18  C  1  Z      0.000000000    0.000000000   -1.576572447    0.000000000
   19  C  1 XX      0.000000000    0.000000000    0.000000000    3.221496062
   20  C  1 YY      0.000000000    0.000000000    0.000000000    3.221496062
   21  C  1 ZZ      0.000000000    0.000000000    0.000000000    3.221497124
   22  C  1 XY      0.000000000    0.000000000    0.000000000    0.000000000
   23  C  1 XZ      0.000000000    0.000000000    0.000000000    0.000000000
   24  C  1 YZ      0.000000000    0.000000000    0.000000000    0.000000000
 ...... END OF ROHF CALCULATION ......
 STEP CPU TIME =     0.01 TOTAL CPU TIME =       12.0 (    0.2 MIN)
 TOTAL WALL CLOCK TIME=       12.8 SECONDS, CPU UTILIZATION IS  93.91%

          -----------------
          ENERGY COMPONENTS
          -----------------

         WAVEFUNCTION NORMALIZATION =       1.0000000000

                ONE ELECTRON ENERGY =     -50.4508800346
                TWO ELECTRON ENERGY =      12.7623922553
           NUCLEAR REPULSION ENERGY =       0.0000000000
                                      ------------------
                       TOTAL ENERGY =     -37.6884877793

 ELECTRON-ELECTRON POTENTIAL ENERGY =      12.7623922553
  NUCLEUS-ELECTRON POTENTIAL ENERGY =     -88.1391976649
   NUCLEUS-NUCLEUS POTENTIAL ENERGY =       0.0000000000
                                      ------------------
             TOTAL POTENTIAL ENERGY =     -75.3768054096
               TOTAL KINETIC ENERGY =      37.6883176303
                 VIRIAL RATIO (V/T) =       2.0000045146

          ---------------------------------------
          MULLIKEN AND LOWDIN POPULATION ANALYSES
          ---------------------------------------

     MULLIKEN ATOMIC POPULATION IN EACH MOLECULAR ORBITAL

                      1          2          3          4

                  2.000000   2.000000   1.000000   1.000000

    1             2.000000   2.000000   1.000000   1.000000

     ATOMIC SPIN POPULATION (ALPHA MINUS BETA)
       ATOM         MULL.POP.                    LOW.POP.
    1 C             2.000000                     2.000000

               ----- POPULATIONS IN EACH AO -----
                             MULLIKEN      LOWDIN
              1  C  1  S      0.21844     0.56702
              2  C  1  S      1.77940     0.82173
              3  C  1  S      0.02040     0.36010
              4  C  1  S     -0.08862     0.34616
              5  C  1  S      1.06526     0.52788
              6  C  1  S      1.11102     0.53792
              7  C  1  X      0.06034     0.11924
              8  C  1  Y      0.06034     0.11924
              9  C  1  Z      0.00000     0.00000
             10  C  1  X      0.51354     0.43921
             11  C  1  Y      0.51354     0.43921
             12  C  1  Z      0.00000     0.00000
             13  C  1  X      0.42568     0.43590
             14  C  1  Y      0.42568     0.43590
             15  C  1  Z      0.00000     0.00000
             16  C  1  X      0.00043     0.00565
             17  C  1  Y      0.00043     0.00565
             18  C  1  Z      0.00000     0.00000
             19  C  1 XX     -0.03286     0.28180
             20  C  1 YY     -0.03286     0.28180
             21  C  1 ZZ     -0.04018     0.27558
             22  C  1 XY      0.00000     0.00000
             23  C  1 XZ      0.00000     0.00000
             24  C  1 YZ      0.00000     0.00000

          ----- MULLIKEN ATOMIC OVERLAP POPULATIONS -----
          (OFF-DIAGONAL ELEMENTS NEED TO BE MULTIPLIED BY 2)

             1

    1    6.0000000

          TOTAL MULLIKEN AND LOWDIN ATOMIC POPULATIONS
       ATOM         MULL.POP.    CHARGE          LOW.POP.     CHARGE
    1 C             6.000000    0.000000         6.000000    0.000000

          -------------------------------
          BOND ORDER AND VALENCE ANALYSIS     BOND ORDER THRESHOLD=0.050
          -------------------------------

                   BOND                       BOND                       BOND
  ATOM PAIR DIST  ORDER      ATOM PAIR DIST  ORDER      ATOM PAIR DIST  ORDER

                       TOTAL       BONDED        FREE
      ATOM            VALENCE     VALENCE     VALENCE
    1 C                 2.000       0.000       2.000

          -----------------------------------------
          ATOMIC SPIN DENSITY AT THE NUCLEUS (A.U.)
          -----------------------------------------
                            SPIN DENS    ALPHA DENS     BETA DENS
    1  C            6.0     0.0000000      62.92848      62.92848

          ---------------------
          ELECTROSTATIC MOMENTS
          ---------------------

 POINT   1           X           Y           Z (BOHR)    CHARGE
                 0.000000    0.000000    0.000000        0.00 (A.U.)
         DX          DY          DZ         /D/  (DEBYE)
     0.000000    0.000000    0.000000    0.000000
 ...... END OF PROPERTY EVALUATION ......
 STEP CPU TIME =     0.02 TOTAL CPU TIME =       12.0 (    0.2 MIN)
 TOTAL WALL CLOCK TIME=       12.8 SECONDS, CPU UTILIZATION IS  94.06%
 100000 WORDS OF DYNAMIC MEMORY USED
 EXECUTION OF GAMESS TERMINATED NORMALLY Mon Apr  9 13:59:53 2007
 DDI: 920 bytes (0.0 MB / 0 MWords) used by master data server.

 ----------------------------------------
 CPU timing information for all processes
 ========================================
 0: 12.050000 + 0.000000 = 12.050000
 ----------------------------------------
 ddikick.x: exited gracefully.
----- accounting info -----
Mon Apr  9 13:59:56 EDT 2007
Files used on the master node nanolab.cnf.cornell.edu were:
-rw-r-----    1 toulouse users         439 Apr  9 13:59 /tmp/c_sto14g_cvb1_hf.F05
-rw-r--r--    1 toulouse users      180012 Apr  9 13:59 /tmp/c_sto14g_cvb1_hf.F08
-rw-r--r--    1 toulouse users      387048 Apr  9 13:59 /tmp/c_sto14g_cvb1_hf.F10
0.010u 0.050s 0:15.58 0.3%	0+0k 0+0io 6084pf+0w
