----- GAMESS execution script -----
This job is running on host qmc4
under operating system Linux at Thu Mar 16 11:04:26 EDT 2017
Available scratch disk space (Kbyte units) at beginning of the job is
Filesystem      1K-blocks       Used Available Use% Mounted on
/dev/sda7      1515619644 1040573924 398033656  73% /

 Distributed Data Interface kickoff program.
 Initiating 1 compute processes on 1 nodes to run the following command:
 /home/cyrus/qmc_setup/gamess09_modified/gamess.00.x ci_oh_orbs_ras5-21-3 

          ******************************************************
          *         GAMESS VERSION = 12 JAN 2009 (R3)          *
          *             FROM IOWA STATE UNIVERSITY             *
          * M.W.SCHMIDT, K.K.BALDRIDGE, J.A.BOATZ, S.T.ELBERT, *
          *   M.S.GORDON, J.H.JENSEN, S.KOSEKI, N.MATSUNAGA,   *
          *          K.A.NGUYEN, S.J.SU, T.L.WINDUS,           *
          *       TOGETHER WITH M.DUPUIS, J.A.MONTGOMERY       *
          *         J.COMPUT.CHEM.  14, 1347-1363(1993)        *
          **************** 64 BIT LINUX VERSION ****************

  SINCE 1993, STUDENTS AND POSTDOCS WORKING AT IOWA STATE UNIVERSITY
  AND ALSO IN THEIR VARIOUS JOBS AFTER LEAVING ISU HAVE MADE IMPORTANT
  CONTRIBUTIONS TO THE CODE:
     IVANA ADAMOVIC, CHRISTINE AIKENS, YURI ALEXEEV, POOJA ARORA,
     ANDREY ASADCHEV, ROB BELL, PRADIPTA BANDYOPADHYAY, JONATHAN BENTZ,
     BRETT BODE, GALINA CHABAN, WEI CHEN, CHEOL HO CHOI, PAUL DAY, TIM DUDLEY,
     DMITRI FEDOROV, GRAHAM FLETCHER, MARK FREITAG, KURT GLAESEMANN, DAN KEMP,
     GRANT MERRILL, JONATHAN MULLIN, TAKESHI NAGATA, SEAN NEDD,
     HEATHER NETZLOFF, BOSILJKA NJEGIC, RYAN OLSON, MIKE PAK, JIM SHOEMAKER,
     LYUDMILA SLIPCHENKO, SAROM SOK, JIE SONG, TETSUYA TAKETSUGU,
     SIMON WEBB, SOOHAENG YOO, FEDERICO ZAHARIEV

  ADDITIONAL CODE HAS BEEN PROVIDED BY COLLABORATORS IN OTHER GROUPS:
     IOWA STATE UNIVERSITY: JOE IVANIC, KLAUS RUEDENBERG
     UNIVERSITY OF TOKYO: KIMIHIKO HIRAO, TAKAHITO NAKAJIMA,
          TAKAO TSUNEDA, MUNEAKI KAMIYA, SUSUMU YANAGISAWA,
          KIYOSHI YAGI, MAHITO CHIBA, SEIKEN TOKURA, NAOAKI KAWAKAMI
     UNIVERSITY OF AARHUS: FRANK JENSEN
     UNIVERSITY OF IOWA: VISVALDAS KAIRYS, HUI LI
     NATIONAL INST. OF STANDARDS AND TECHNOLOGY: WALT STEVENS, DAVID GARMER
     UNIVERSITY OF PISA: BENEDETTA MENNUCCI, JACOPO TOMASI
     UNIVERSITY OF MEMPHIS: HENRY KURTZ, PRAKASHAN KORAMBATH
     UNIVERSITY OF ALBERTA: MARIUSZ KLOBUKOWSKI
     UNIVERSITY OF NEW ENGLAND: MARK SPACKMAN
     MIE UNIVERSITY: HIROAKI UMEDA
     MICHIGAN STATE UNIVERSITY:
          KAROL KOWALSKI, MARTA WLOCH, JEFFREY R. GOUR, PIOTR PIECUCH
     UNIVERSITY OF SILESIA: MONIKA MUSIAL, STANISLAW KUCHARSKI
     FACULTES UNIVERSITAIRES NOTRE-DAME DE LA PAIX:
          OLIVIER QUINET, BENOIT CHAMPAGNE
     UNIVERSITY OF CALIFORNIA - SANTA BARBARA: BERNARD KIRTMAN
     INSTITUTE FOR MOLECULAR SCIENCE: KAZUYA ISHIMURA AND SHIGERU NAGASE
     UNIVERSITY OF NOTRE DAME: DAN CHIPMAN
     KYUSHU UNIVERSITY:
          HARUYUKI NAKANO,
          FENG LONG GU, JACEK KORCHOWIEC, MARCIN MAKOWSKI, AND YURIKO AOKI,
          HIROTOSHI MORI AND EISAKU MIYOSHI
     PENNSYLVANIA STATE UNIVERSITY:
          TZVETELIN IORDANOV, CHET SWALINA, JONATHAN SKONE,
          SHARON HAMMES-SCHIFFER
     WASEDA UNIVERSITY:
          MASATO KOBAYASHI, TOMOKO AKAMA, HIROMI NAKAI

 EXECUTION OF GAMESS BEGUN Thu Mar 16 11:04:26 2017

            ECHO OF THE FIRST FEW INPUT CARDS -
 INPUT CARD> $CONTRL RUNTYP=ENERGY EXETYP=RUN COORD=UNIQUE NORMF=1 UNITS=BOHR MULT=2        
 INPUT CARD>         ISPHER=1                                                               
 INPUT CARD>         SCFTYP=NONE CITYP=GUGA MAXIT=200 $END                                  
 INPUT CARD>#        SCFTYP=MCSCF CITYP=NONE MAXIT=200 $END                                 
 INPUT CARD>#        SCFTYP=ROHF $END                                                       
 INPUT CARD> $SYSTEM MWORDS=100 $END                                                        
 INPUT CARD>#$GUESS  GUESS=HUCKEL PRTMO=.TRUE. $END                                         
 INPUT CARD> $GUESS  GUESS=MOREAD PRTMO=.TRUE. NORB=29 $END                                 
 INPUT CARD>#$DFT    DFTTYP=SVWN THRESH=1.0E-15 $END                                        
 INPUT CARD>#$SCF    MVOQ=0 DIRSCF=.FALSE. RSTRCT=.TRUE. $END                               
 INPUT CARD>#$MCSCF  CISTEP=GUGA MAXIT=200 $END                                             
 INPUT CARD>#$DRT    GROUP=D2H IEXCIT=3 NDOC=2 NALP=1 NVAL=18 NMCC=8 NPRT=1                 
 INPUT CARD>#        NEXT=0 SOCI=.FALSE. $END                                               
 INPUT CARD> $CIDRT  GROUP=D2H IEXCIT=3 NDOC=2 NALP=1 NVAL=18 NFZC=8 NPRT=2 $END            
 INPUT CARD> $GUGDIA NSTATE=1 PRTTOL=0.001 KPRINT=2 $END                                    
 INPUT CARD>                                                                                
 INPUT CARD> $DATA                                                                          
 INPUT CARD>Sc ROHF with D4H symmetry and Bunge basis                                       
 INPUT CARD>DNH 2                                                                           
 INPUT CARD>                                                                                
 INPUT CARD>Sc 21.0      0.0        0.0        0.0                                          
 INPUT CARD>  1S  10    21.7237                                                             
 INPUT CARD>  2S  10    18.5964                                                             
 INPUT CARD>  2S  10     8.5331                                                             
 INPUT CARD>  3S  10    26.6635                                                             
 INPUT CARD>  3S  10     6.3629                                                             
 INPUT CARD>  3S  10     4.4087                                                             
 INPUT CARD>  3S  10     2.9836                                                             
 INPUT CARD>  4S  10    10.0558                                                             
 INPUT CARD>  4S  10     1.7339                                                             
 INPUT CARD>  4S  10     1.1548                                                             
 INPUT CARD>  4S  10     0.8074                                                             
 INPUT CARD>  2P  10    31.2091                                                             
 INPUT CARD>  2P  10    12.6896                                                             
 INPUT CARD>  2P  10     6.5469                                                             
 INPUT CARD>  2P  10     2.7945                                                             
 INPUT CARD>  3P  10    10.0778                                                             
 INPUT CARD>  3P  10     2.3661                                                             
 INPUT CARD>  3P  10     1.4540                                                             
 INPUT CARD>  3D  10     9.8549                                                             
 INPUT CARD>  3D  10     4.8498                                                             
 INPUT CARD>  3D  10     2.9200                                                             
 INPUT CARD>  3D  10     1.7389                                                             
 INPUT CARD>  3D  10     1.0594                                                             
 INPUT CARD>                                                                                
 INPUT CARD> $END                                                                           
 INPUT CARD>--- OPEN SHELL ORBITALS --- GENERATED AT Wed Mar 15 23:53:38 2017               
 INPUT CARD>Sc ROHF with OH symmetry and Bunge basis                                        
 INPUT CARD>E(ROHF)=     -759.6134330547, E(NUC)=    0.0000000000,   11 ITERS               
 INPUT CARD> $VEC                                                                           
  100000000 WORDS OF MEMORY AVAILABLE


     RUN TITLE
     ---------
 Sc ROHF with D4H symmetry and Bunge basis                                       

 THE POINT GROUP OF THE MOLECULE IS DNH     
 THE ORDER OF THE PRINCIPAL AXIS IS     2

 ATOM      ATOMIC                      COORDINATES (BOHR)
           CHARGE         X                   Y                   Z
 SC         21.0     0.0000000000        0.0000000000        0.0000000000

          INTERNUCLEAR DISTANCES (ANGS.)
          ------------------------------

                1 SC    

   1 SC      0.0000000  

  * ... LESS THAN  3.000

 ATOMS: STO-NG TYPE BASIS SET

     ATOMIC BASIS SET
     ----------------
 THE CONTRACTED PRIMITIVE FUNCTIONS HAVE BEEN UNNORMALIZED

 SHELL TYPE PRIMITIVE    SLATER EXPONENT     EXPONENT          CONTRACTION COEFFICIENTS

 SC        

   1   1S      1            21.7237000        128644.2103843      0.000423192570
   1   1S      2                               23592.2288109      0.002381039318
   1   1S      3                                6606.0187258      0.009323817678
   1   1S      4                                2275.6035650      0.029449066147
   1   1S      5                                 892.3330101      0.078182257712
   1   1S      6                                 383.1596834      0.172173917294
   1   1S      7                                 176.0358939      0.293804943562
   1   1S      8                                  85.1223987      0.335431635380
   1   1S      9                                  42.6127520      0.193156674504
   1   1S     10                                  21.3721828      0.030650811270

   2   2S     11            18.5964000        131436.3948651     -0.000161084288
   2   2S     12                               24107.1223880     -0.000902043073
   2   2S     13                                6746.9978937     -0.003484545043
   2   2S     14                                2318.3144021     -0.010623130016
   2   2S     15                                 902.2916793     -0.025615792722
   2   2S     16                                 382.0156052     -0.040985733271
   2   2S     17                                  83.3303539      0.203561156988
   2   2S     18                                  42.5291127      0.460497528315
   2   2S     19                                  22.6505496      0.350348800421
   2   2S     20                                  12.1621639      0.058966025710

   3   2S     21             8.5331000         27673.9754063     -0.000161084288
   3   2S     22                                5075.7624079     -0.000902043073
   3   2S     23                                1420.5825865     -0.003484545043
   3   2S     24                                 488.1218464     -0.010623130016
   3   2S     25                                 189.9778046     -0.025615792722
   3   2S     26                                  80.4335091     -0.040985733271
   3   2S     27                                  17.5452329      0.203561156988
   3   2S     28                                   8.9545184      0.460497528315
   3   2S     29                                   4.7690805      0.350348800421
   3   2S     30                                   2.5607475      0.058966025710

   4   3S     31            26.6635000         16197.6836690     -0.000096246098
   4   3S     32                                4531.5180416     -0.001095804386
   4   3S     33                                1743.4711464     -0.006813541055
   4   3S     34                                 785.1698834     -0.028354806826
   4   3S     35                                 390.8621250     -0.078944660723
   4   3S     36                                 209.2216472     -0.122064769268
   4   3S     37                                  70.1549352      0.357812821865
   4   3S     38                                  42.9325694      0.524196505547
   4   3S     39                                  26.7692794      0.238117516041
   4   3S     40                                  16.5253114      0.022446893156

   5   3S     41             6.3629000           922.4201798     -0.000096246098
   5   3S     42                                 258.0593480     -0.001095804386
   5   3S     43                                  99.2866018     -0.006813541055
   5   3S     44                                  44.7135874     -0.028354806826
   5   3S     45                                  22.2586833     -0.078944660723
   5   3S     46                                  11.9146832     -0.122064769268
   5   3S     47                                   3.9951594      0.357812821865
   5   3S     48                                   2.4449094      0.524196505547
   5   3S     49                                   1.5244478      0.238117516041
   5   3S     50                                   0.9410778      0.022446893156

   6   3S     51             4.4087000           442.8327116     -0.000096246098
   6   3S     52                                 123.8883573     -0.001095804386
   6   3S     53                                  47.6652138     -0.006813541055
   6   3S     54                                  21.4659649     -0.028354806826
   6   3S     55                                  10.6858819     -0.078944660723
   6   3S     56                                   5.7199654     -0.122064769268
   6   3S     57                                   1.9179841      0.357812821865
   6   3S     58                                   1.1737447      0.524196505547
   6   3S     59                                   0.7318523      0.238117516041
   6   3S     60                                   0.4517898      0.022446893156

   7   3S     61             2.9836000           202.8148715     -0.000096246098
   7   3S     62                                  56.7401653     -0.001095804386
   7   3S     63                                  21.8303977     -0.006813541055
   7   3S     64                                   9.8312902     -0.028354806826
   7   3S     65                                   4.8940733     -0.078944660723
   7   3S     66                                   2.6197117     -0.122064769268
   7   3S     67                                   0.8784259      0.357812821865
   7   3S     68                                   0.5375684      0.524196505547
   7   3S     69                                   0.3351842      0.238117516041
   7   3S     70                                   0.2069172      0.022446893156

   8   4S     71            10.0558000          1862.2819599      0.007863318548
   8   4S     72                                 521.5892152      0.029725709930
   8   4S     73                                 201.5991063      0.058898489922
   8   4S     74                                  46.6649570     -0.385557293892
   8   4S     75                                  25.7028947     -1.142555117607
   8   4S     76                                  15.0680592     -1.365504026413
   8   4S     77                                   5.9347938      1.478232502937
   8   4S     78                                   3.9020347      1.090389013290
   8   4S     79                                   2.6017039      0.220208153129
   8   4S     80                                   1.7130431      0.007728016004

   9   4S     81             1.7339000            55.3681835      0.007863318548
   9   4S     82                                  15.5075590      0.029725709930
   9   4S     83                                   5.9938165      0.058898489922
   9   4S     84                                   1.3874128     -0.385557293892
   9   4S     85                                   0.7641821     -1.142555117607
   9   4S     86                                   0.4479940     -1.365504026413
   9   4S     87                                   0.1764495      1.478232502937
   9   4S     88                                   0.1160128      1.090389013290
   9   4S     89                                   0.0773522      0.220208153129
   9   4S     90                                   0.0509311      0.007728016004

  10   4S     91             1.1548000            24.5598513      0.007863318548
  10   4S     92                                   6.8787401      0.029725709930
  10   4S     93                                   2.6586973      0.058898489922
  10   4S     94                                   0.6154194     -0.385557293892
  10   4S     95                                   0.3389708     -1.142555117607
  10   4S     96                                   0.1987182     -1.365504026413
  10   4S     97                                   0.0782683      1.478232502937
  10   4S     98                                   0.0514602      1.090389013290
  10   4S     99                                   0.0343114      0.220208153129
  10   4S    100                                   0.0225917      0.007728016004

  11   4S    101             0.8074000            12.0057604      0.007863318548
  11   4S    102                                   3.3625817      0.029725709930
  11   4S    103                                   1.2996692      0.058898489922
  11   4S    104                                   0.3008397     -0.385557293892
  11   4S    105                                   0.1657014     -1.142555117607
  11   4S    106                                   0.0971408     -1.365504026413
  11   4S    107                                   0.0382604      1.478232502937
  11   4S    108                                   0.0251556      1.090389013290
  11   4S    109                                   0.0167727      0.220208153129
  11   4S    110                                   0.0110436      0.007728016004

  12   2P    111            31.2091000         41575.1356749      0.000255017076
  12   2P    112                               10860.2121188      0.001829099841
  12   2P    113                                3899.7667432      0.008612751029
  12   2P    114                                1642.7330539      0.031150894240
  12   2P    115                                 765.3547387      0.089759565890
  12   2P    116                                 382.7008528      0.201379358768
  12   2P    117                                 201.5956653      0.325596928596
  12   2P    118                                 110.3032862      0.326958388090
  12   2P    119                                  61.7272332      0.155687600374
  12   2P    120                                  34.2467730      0.019753307104

  13   2P    121            12.6896000          6873.3277062      0.000255017076
  13   2P    122                                1795.4432533      0.001829099841
  13   2P    123                                 644.7212828      0.008612751029
  13   2P    124                                 271.5816180      0.031150894240
  13   2P    125                                 126.5307700      0.089759565890
  13   2P    126                                  63.2692674      0.201379358768
  13   2P    127                                  33.3284077      0.325596928596
  13   2P    128                                  18.2356743      0.326958388090
  13   2P    129                                  10.2049337      0.155687600374
  13   2P    130                                   5.6617805      0.019753307104

  14   2P    131             6.5469000          1829.5429122      0.000255017076
  14   2P    132                                 477.9112271      0.001829099841
  14   2P    133                                 171.6119620      0.008612751029
  14   2P    134                                  72.2896165      0.031150894240
  14   2P    135                                  33.6799704      0.089759565890
  14   2P    136                                  16.8410186      0.201379358768
  14   2P    137                                   8.8713582      0.325596928596
  14   2P    138                                   4.8539732      0.326958388090
  14   2P    139                                   2.7163501      0.155687600374
  14   2P    140                                   1.5070532      0.019753307104

  15   2P    141             2.7945000           333.3338462      0.000255017076
  15   2P    142                                  87.0731079      0.001829099841
  15   2P    143                                  31.2668672      0.008612751029
  15   2P    144                                  13.1708176      0.031150894240
  15   2P    145                                   6.1363273      0.089759565890
  15   2P    146                                   3.0683519      0.201379358768
  15   2P    147                                   1.6163184      0.325596928596
  15   2P    148                                   0.8843704      0.326958388090
  15   2P    149                                   0.4949058      0.155687600374
  15   2P    150                                   0.2745778      0.019753307104

  16   3P    151            10.0778000          5831.2279739     -0.000055044660
  16   3P    152                                1521.2146048     -0.000388204760
  16   3P    153                                 543.7301635     -0.001755956793
  16   3P    154                                 226.4682216     -0.005718931556
  16   3P    155                                 103.5681212     -0.011714054272
  16   3P    156                                  26.4621949      0.094200424850
  16   3P    157                                  14.5447963      0.305869162083
  16   3P    158                                   8.3383516      0.423610746861
  16   3P    159                                   4.9065071      0.227436304092
  16   3P    160                                   2.8713226      0.028353035450

  17   3P    161             2.3661000           321.4361674     -0.000055044660
  17   3P    162                                  83.8542747     -0.000388204760
  17   3P    163                                  29.9721672     -0.001755956793
  17   3P    164                                  12.4836617     -0.005718931556
  17   3P    165                                   5.7090102     -0.011714054272
  17   3P    166                                   1.4586819      0.094200424850
  17   3P    167                                   0.8017563      0.305869162083
  17   3P    168                                   0.4596369      0.423610746861
  17   3P    169                                   0.2704626      0.227436304092
  17   3P    170                                   0.1582766      0.028353035450

  18   3P    171             1.4540000           121.3828592     -0.000055044660
  18   3P    172                                  31.6656078     -0.000388204760
  18   3P    173                                  11.3182887     -0.001755956793
  18   3P    174                                   4.7141632     -0.005718931556
  18   3P    175                                   2.1558743     -0.011714054272
  18   3P    176                                   0.5508371      0.094200424850
  18   3P    177                                   0.3027645      0.305869162083
  18   3P    178                                   0.1735712      0.423610746861
  18   3P    179                                   0.1021339      0.227436304092
  18   3P    180                                   0.0597695      0.028353035450

  19   3D    181             9.8549000          1300.7931644      0.000178817631
  19   3D    182                                 418.6404027      0.001556501375
  19   3D    183                                 174.7541591      0.008423312567
  19   3D    184                                  83.2486206      0.033440444618
  19   3D    185                                  43.1197809      0.100887432694
  19   3D    186                                  23.6812722      0.225321233273
  19   3D    187                                  13.5716096      0.344351470470
  19   3D    188                                   8.0140184      0.311593115330
  19   3D    189                                   4.8059268      0.128915205598
  19   3D    190                                   2.8420273      0.013938680291

  20   3D    191             4.8498000           315.0296719      0.000178817631
  20   3D    192                                 101.3874860      0.001556501375
  20   3D    193                                  42.3224437      0.008423312567
  20   3D    194                                  20.1613803      0.033440444618
  20   3D    195                                  10.4428673      0.100887432694
  20   3D    196                                   5.7351957      0.225321233273
  20   3D    197                                   3.2868098      0.344351470470
  20   3D    198                                   1.9408570      0.311593115330
  20   3D    199                                   1.1639126      0.128915205598
  20   3D    200                                   0.6882900      0.013938680291

  21   3D    201             2.9200000           114.2008945      0.000178817631
  21   3D    202                                  36.7538128      0.001556501375
  21   3D    203                                  15.3422403      0.008423312567
  21   3D    204                                   7.3086692      0.033440444618
  21   3D    205                                   3.7856269      0.100887432694
  21   3D    206                                   2.0790565      0.225321233273
  21   3D    207                                   1.1914961      0.344351470470
  21   3D    208                                   0.7035769      0.311593115330
  21   3D    209                                   0.4219281      0.128915205598
  21   3D    210                                   0.2495109      0.013938680291

  22   3D    211             1.7389000            40.4998130      0.000178817631
  22   3D    212                                  13.0342459      0.001556501375
  22   3D    213                                   5.4409194      0.008423312567
  22   3D    214                                   2.5919213      0.033440444618
  22   3D    215                                   1.3425217      0.100887432694
  22   3D    216                                   0.7373095      0.225321233273
  22   3D    217                                   0.4225481      0.344351470470
  22   3D    218                                   0.2495141      0.311593115330
  22   3D    219                                   0.1496311      0.128915205598
  22   3D    220                                   0.0884857      0.013938680291

  23   3D    221             1.0594000            15.0322413      0.000178817631
  23   3D    222                                   4.8378972      0.001556501375
  23   3D    223                                   2.0194961      0.008423312567
  23   3D    224                                   0.9620387      0.033440444618
  23   3D    225                                   0.4983013      0.100887432694
  23   3D    226                                   0.2736658      0.225321233273
  23   3D    227                                   0.1568364      0.344351470470
  23   3D    228                                   0.0926117      0.311593115330
  23   3D    229                                   0.0555383      0.128915205598
  23   3D    230                                   0.0328431      0.013938680291

 TOTAL NUMBER OF BASIS SET SHELLS             =   23
 NUMBER OF CARTESIAN GAUSSIAN BASIS FUNCTIONS =   62
 NOTE: THIS RUN WILL RESTRICT THE MO VARIATION SPACE TO SPHERICAL HARMONICS.
 THE NUMBER OF ORBITALS KEPT IN THE VARIATIONAL SPACE WILL BE PRINTED LATER.
 NUMBER OF ELECTRONS                          =   21
 CHARGE OF MOLECULE                           =    0
 SPIN MULTIPLICITY                            =    2
 NUMBER OF OCCUPIED ORBITALS (ALPHA)          =   11
 NUMBER OF OCCUPIED ORBITALS (BETA )          =   10
 TOTAL NUMBER OF ATOMS                        =    1
 THE NUCLEAR REPULSION ENERGY IS        0.0000000000

 THIS MOLECULE IS RECOGNIZED AS BEING LINEAR,
 ORBITAL LZ DEGENERACY TOLERANCE ETOLLZ= 1.00E-06

     $CONTRL OPTIONS
     ---------------
 SCFTYP=NONE         RUNTYP=ENERGY       EXETYP=RUN     
 MPLEVL=       0     CITYP =GUGA         CCTYP =NONE         VBTYP =NONE    
 DFTTYP=NONE         TDDFT =NONE    
 MULT  =       2     ICHARG=       0     NZVAR =       0     COORD =UNIQUE  
 PP    =NONE         RELWFN=NONE         LOCAL =NONE         NUMGRD=       F
 ISPHER=       1     NOSYM =       0     MAXIT =     200     UNITS =BOHR    
 PLTORB=       F     MOLPLT=       F     AIMPAC=       F     FRIEND=        
 NPRINT=       7     IREST =       0     GEOM  =INPUT   
 NORMF =       1     NORMP =       0     ITOL  =      20     ICUT  =       9
 INTTYP=BEST         GRDTYP=BEST         QMTTOL= 1.0E-06

     $SYSTEM OPTIONS
     ---------------
  REPLICATED MEMORY=   100000000 WORDS (ON EVERY NODE).
 DISTRIBUTED MEMDDI=           0 MILLION WORDS IN AGGREGATE,
 MEMDDI DISTRIBUTED OVER   1 PROCESSORS IS           0 WORDS/PROCESSOR.
 TOTAL MEMORY REQUESTED ON EACH PROCESSOR=   100000000 WORDS.
 TIMLIM=      525600.00 MINUTES, OR   365.00 DAYS.
 PARALL= F  BALTYP=  DLB     KDIAG=    0  COREFL= F

          ----------------
          PROPERTIES INPUT
          ----------------

     MOMENTS            FIELD           POTENTIAL          DENSITY
 IEMOM =       1   IEFLD =       0   IEPOT =       0   IEDEN =       0
 WHERE =COMASS     WHERE =NUCLEI     WHERE =NUCLEI     WHERE =NUCLEI  
 OUTPUT=BOTH       OUTPUT=BOTH       OUTPUT=PUNCH      OUTPUT=BOTH    
 IEMINT=       0   IEFINT=       0                     IEDINT=       0
                                                       MORB  =       0
          EXTRAPOLATION IN EFFECT
          SOSCF IN EFFECT
 ORBITAL PRINTING OPTION: NPREO=     1    62     2     1

     -------------------------------
     INTEGRAL TRANSFORMATION OPTIONS
     -------------------------------
     NWORD  =         0     CUTOFF = 1.0E-09
     MPTRAN =         0     DIRTRF =       F
     AOINTS =DUP     

          ----------------------
          INTEGRAL INPUT OPTIONS
          ----------------------
 NOPK  =       1 NORDER=       0 SCHWRZ=       F

     ------------------------------------------
     THE POINT GROUP IS DNH, NAXIS= 2, ORDER= 8
     ------------------------------------------

 -- VARIATIONAL SPACE WILL BE RESTRICTED TO PURE SPHERICAL HARMONICS ONLY --
 AFTER EXCLUDING CONTAMINANT COMBINATIONS FROM THE CARTESIAN GAUSSIAN BASIS
 SET, THE NUMBER OF SPHERICAL HARMONICS KEPT IN THE VARIATION SPACE IS   57

     DIMENSIONS OF THE SYMMETRY SUBSPACES ARE
 AG  =   21     AU  =    0     B3U =    7     B3G =    5     B1G =    5
 B1U =    7     B2U =    7     B2G =    5

 ..... DONE SETTING UP THE RUN .....
 STEP CPU TIME =     0.01 TOTAL CPU TIME =        0.0 (    0.0 MIN)
 TOTAL WALL CLOCK TIME=        0.0 SECONDS, CPU UTILIZATION IS  50.00%

          ********************
          1 ELECTRON INTEGRALS
          ********************
 ...... END OF ONE-ELECTRON INTEGRALS ......
 STEP CPU TIME =     0.01 TOTAL CPU TIME =        0.0 (    0.0 MIN)
 TOTAL WALL CLOCK TIME=        0.0 SECONDS, CPU UTILIZATION IS  66.67%

          -------------
          GUESS OPTIONS
          -------------
          GUESS =MOREAD            NORB  =      29          NORDER=       0
          MIX   =       F          PRTMO =       T          PUNMO =       F
          TOLZ  = 1.0E-08          TOLE  = 1.0E-05
          SYMDEN=       F          PURIFY=       F

 INITIAL GUESS ORBITALS GENERATED BY MOREAD   ROUTINE.

 STATISTICS FOR GENERATION OF SYMMETRY ORBITAL -Q- MATRIX
 NUMBER OF CARTESIAN ATOMIC ORBITALS=         62
 NUMBER OF SPHERICAL CONTAMINANTS DROPPED=     5
 NUMBER OF LINEARLY DEPENDENT MOS DROPPED=     0
 TOTAL NUMBER OF MOS IN VARIATION SPACE=      57
 EIGENVALUES ARE DIAGONAL OF 1E- H IN MO BASIS

 SYMMETRIES FOR INITIAL GUESS ORBITALS FOLLOW.   BOTH SET(S).
    11 ORBITALS ARE OCCUPIED (    9 CORE ORBITALS).
     1=AG       2=AG       3=B3U      4=B2U      5=B1U      6=AG       7=B2U 
     8=B3U      9=B1U     10=AG      11=AG      12=AG      13=AG      14=B3G 
    15=B2G     16=B1G     17=B3U     18=B2U     19=B1U     20=AG      21=AG  
    22=B2G     23=B3G     24=B1G     25=AG      26=AG      27=AG      28=B3G 
    29=B2G     30=AG      31=AG      32=AG      33=AG      34=AG      35=AG  
    36=AG      37=AG      38=AG      39=B3U     40=B3U     41=B3U     42=B3U 
    43=B3G     44=B3G     45=B1G     46=B1G     47=B1G     48=B1U     49=B1U 
    50=B1U     51=B1U     52=B2U     53=B2U     54=B2U     55=B2U     56=B2G 
    57=B2G 

                              ----------------------
                              INITIAL GUESS ORBITALS
                              ----------------------

                        1              2              3              4              5
                 -220.362886132  -53.451796017  -52.753626515  -52.753626515  -52.753626515
                       AG             AG             B3U            B2U            B1U 
    1  SC 1  S      0.929226267   -0.270646407    0.000000000    0.000000000    0.000000000
    2  SC 1  S      0.076947027   -0.163569993    0.000000000    0.000000000    0.000000000
    3  SC 1  S      0.001476017    1.031828254    0.000000000    0.000000000    0.000000000
    4  SC 1  S      0.010168224    0.002040830    0.000000000    0.000000000    0.000000000
    5  SC 1  S      0.000126055    0.133337296    0.000000000    0.000000000    0.000000000
    6  SC 1  S     -0.000210622   -0.037107645    0.000000000    0.000000000    0.000000000
    7  SC 1  S      0.000047820    0.013151108    0.000000000    0.000000000    0.000000000
    8  SC 1  S     -0.000142403    0.011623176    0.000000000    0.000000000    0.000000000
    9  SC 1  S     -0.000007753   -0.001613345    0.000000000    0.000000000    0.000000000
   10  SC 1  S      0.000005416    0.001182313    0.000000000    0.000000000    0.000000000
   11  SC 1  S     -0.000002115   -0.000458188    0.000000000    0.000000000    0.000000000
   12  SC 1  X      0.000000000    0.000000000    0.001165833    0.000000000    0.000000000
   13  SC 1  Y      0.000000000    0.000000000    0.000000000    0.001165833    0.000000000
   14  SC 1  Z      0.000000000    0.000000000    0.000000000    0.000000000    0.001165833
   15  SC 1  X      0.000000000    0.000000000    0.341578660    0.000000000    0.000000000
   16  SC 1  Y      0.000000000    0.000000000    0.000000000    0.341578660    0.000000000
   17  SC 1  Z      0.000000000    0.000000000    0.000000000    0.000000000    0.341578660
   18  SC 1  X      0.000000000    0.000000000    0.415673957    0.000000000    0.000000000
   19  SC 1  Y      0.000000000    0.000000000    0.000000000    0.415673957    0.000000000
   20  SC 1  Z      0.000000000    0.000000000    0.000000000    0.000000000    0.415673957
   21  SC 1  X      0.000000000    0.000000000    0.002818063    0.000000000    0.000000000
   22  SC 1  Y      0.000000000    0.000000000    0.000000000    0.002818063    0.000000000
   23  SC 1  Z      0.000000000    0.000000000    0.000000000    0.000000000    0.002818063
   24  SC 1  X      0.000000000    0.000000000    0.296869706    0.000000000    0.000000000
   25  SC 1  Y      0.000000000    0.000000000    0.000000000    0.296869706    0.000000000
   26  SC 1  Z      0.000000000    0.000000000    0.000000000    0.000000000    0.296869706
   27  SC 1  X      0.000000000    0.000000000   -0.001047051    0.000000000    0.000000000
   28  SC 1  Y      0.000000000    0.000000000    0.000000000   -0.001047051    0.000000000
   29  SC 1  Z      0.000000000    0.000000000    0.000000000    0.000000000   -0.001047051
   30  SC 1  X      0.000000000    0.000000000    0.000086792    0.000000000    0.000000000
   31  SC 1  Y      0.000000000    0.000000000    0.000000000    0.000086792    0.000000000
   32  SC 1  Z      0.000000000    0.000000000    0.000000000    0.000000000    0.000086792
   33  SC 1 XX      0.000000000    0.000000000    0.000000000    0.000000000    0.000000000
   34  SC 1 YY      0.000000000    0.000000000    0.000000000    0.000000000    0.000000000
   35  SC 1 ZZ      0.000000000    0.000000000    0.000000000    0.000000000    0.000000000
   36  SC 1 XY      0.000000000    0.000000000    0.000000000    0.000000000    0.000000000
   37  SC 1 XZ      0.000000000    0.000000000    0.000000000    0.000000000    0.000000000
   38  SC 1 YZ      0.000000000    0.000000000    0.000000000    0.000000000    0.000000000
   39  SC 1 XX      0.000000000    0.000000000    0.000000000    0.000000000    0.000000000
   40  SC 1 YY      0.000000000    0.000000000    0.000000000    0.000000000    0.000000000
   41  SC 1 ZZ      0.000000000    0.000000000    0.000000000    0.000000000    0.000000000
   42  SC 1 XY      0.000000000    0.000000000    0.000000000    0.000000000    0.000000000
   43  SC 1 XZ      0.000000000    0.000000000    0.000000000    0.000000000    0.000000000
   44  SC 1 YZ      0.000000000    0.000000000    0.000000000    0.000000000    0.000000000
   45  SC 1 XX      0.000000000    0.000000000    0.000000000    0.000000000    0.000000000
   46  SC 1 YY      0.000000000    0.000000000    0.000000000    0.000000000    0.000000000
   47  SC 1 ZZ      0.000000000    0.000000000    0.000000000    0.000000000    0.000000000
   48  SC 1 XY      0.000000000    0.000000000    0.000000000    0.000000000    0.000000000
   49  SC 1 XZ      0.000000000    0.000000000    0.000000000    0.000000000    0.000000000
   50  SC 1 YZ      0.000000000    0.000000000    0.000000000    0.000000000    0.000000000
   51  SC 1 XX      0.000000000    0.000000000    0.000000000    0.000000000    0.000000000
   52  SC 1 YY      0.000000000    0.000000000    0.000000000    0.000000000    0.000000000
   53  SC 1 ZZ      0.000000000    0.000000000    0.000000000    0.000000000    0.000000000
   54  SC 1 XY      0.000000000    0.000000000    0.000000000    0.000000000    0.000000000
   55  SC 1 XZ      0.000000000    0.000000000    0.000000000    0.000000000    0.000000000
   56  SC 1 YZ      0.000000000    0.000000000    0.000000000    0.000000000    0.000000000
   57  SC 1 XX      0.000000000    0.000000000    0.000000000    0.000000000    0.000000000
   58  SC 1 YY      0.000000000    0.000000000    0.000000000    0.000000000    0.000000000
   59  SC 1 ZZ      0.000000000    0.000000000    0.000000000    0.000000000    0.000000000
   60  SC 1 XY      0.000000000    0.000000000    0.000000000    0.000000000    0.000000000
   61  SC 1 XZ      0.000000000    0.000000000    0.000000000    0.000000000    0.000000000
   62  SC 1 YZ      0.000000000    0.000000000    0.000000000    0.000000000    0.000000000

                        6              7              8              9             10
                  -19.989872900  -18.402316025  -18.402316025  -18.402316025   -6.267140848
                       AG             B2U            B3U            B1U            AG  
    1  SC 1  S      0.094258382    0.000000000    0.000000000    0.000000000   -0.018273918
    2  SC 1  S      0.064020114    0.000000000    0.000000000    0.000000000   -0.010210996
    3  SC 1  S     -0.439180081    0.000000000    0.000000000    0.000000000    0.152194394
    4  SC 1  S     -0.002620664    0.000000000    0.000000000    0.000000000   -0.001930541
    5  SC 1  S     -0.188655172    0.000000000    0.000000000    0.000000000    0.226627423
    6  SC 1  S      0.629864141    0.000000000    0.000000000    0.000000000   -0.227522024
    7  SC 1  S      0.614084810    0.000000000    0.000000000    0.000000000    0.696789981
    8  SC 1  S     -0.012798422    0.000000000    0.000000000    0.000000000   -0.001914651
    9  SC 1  S      0.004515982    0.000000000    0.000000000    0.000000000    0.316179058
   10  SC 1  S     -0.002575855    0.000000000    0.000000000    0.000000000    0.194840272
   11  SC 1  S      0.000603675    0.000000000    0.000000000    0.000000000    0.157248552
   12  SC 1  X      0.000000000    0.000000000   -0.000254534    0.000000000    0.000000000
   13  SC 1  Y      0.000000000   -0.000254534    0.000000000    0.000000000    0.000000000
   14  SC 1  Z      0.000000000    0.000000000    0.000000000   -0.000254534    0.000000000
   15  SC 1  X      0.000000000    0.000000000   -0.073759237    0.000000000    0.000000000
   16  SC 1  Y      0.000000000   -0.073759237    0.000000000    0.000000000    0.000000000
   17  SC 1  Z      0.000000000    0.000000000    0.000000000   -0.073759237    0.000000000
   18  SC 1  X      0.000000000    0.000000000   -0.467082435    0.000000000    0.000000000
   19  SC 1  Y      0.000000000   -0.467082435    0.000000000    0.000000000    0.000000000
   20  SC 1  Z      0.000000000    0.000000000    0.000000000   -0.467082435    0.000000000
   21  SC 1  X      0.000000000    0.000000000    0.903412696    0.000000000    0.000000000
   22  SC 1  Y      0.000000000    0.903412696    0.000000000    0.000000000    0.000000000
   23  SC 1  Z      0.000000000    0.000000000    0.000000000    0.903412696    0.000000000
   24  SC 1  X      0.000000000    0.000000000   -0.010150276    0.000000000    0.000000000
   25  SC 1  Y      0.000000000   -0.010150276    0.000000000    0.000000000    0.000000000
   26  SC 1  Z      0.000000000    0.000000000    0.000000000   -0.010150276    0.000000000
   27  SC 1  X      0.000000000    0.000000000    0.301488459    0.000000000    0.000000000
   28  SC 1  Y      0.000000000    0.301488459    0.000000000    0.000000000    0.000000000
   29  SC 1  Z      0.000000000    0.000000000    0.000000000    0.301488459    0.000000000
   30  SC 1  X      0.000000000    0.000000000    0.018848748    0.000000000    0.000000000
   31  SC 1  Y      0.000000000    0.018848748    0.000000000    0.000000000    0.000000000
   32  SC 1  Z      0.000000000    0.000000000    0.000000000    0.018848748    0.000000000
   33  SC 1 XX      0.000000000    0.000000000    0.000000000    0.000000000    0.000000000
   34  SC 1 YY      0.000000000    0.000000000    0.000000000    0.000000000    0.000000000
   35  SC 1 ZZ      0.000000000    0.000000000    0.000000000    0.000000000    0.000000000
   36  SC 1 XY      0.000000000    0.000000000    0.000000000    0.000000000    0.000000000
   37  SC 1 XZ      0.000000000    0.000000000    0.000000000    0.000000000    0.000000000
   38  SC 1 YZ      0.000000000    0.000000000    0.000000000    0.000000000    0.000000000
   39  SC 1 XX      0.000000000    0.000000000    0.000000000    0.000000000    0.000000000
   40  SC 1 YY      0.000000000    0.000000000    0.000000000    0.000000000    0.000000000
   41  SC 1 ZZ      0.000000000    0.000000000    0.000000000    0.000000000    0.000000000
   42  SC 1 XY      0.000000000    0.000000000    0.000000000    0.000000000    0.000000000
   43  SC 1 XZ      0.000000000    0.000000000    0.000000000    0.000000000    0.000000000
   44  SC 1 YZ      0.000000000    0.000000000    0.000000000    0.000000000    0.000000000
   45  SC 1 XX      0.000000000    0.000000000    0.000000000    0.000000000    0.000000000
   46  SC 1 YY      0.000000000    0.000000000    0.000000000    0.000000000    0.000000000
   47  SC 1 ZZ      0.000000000    0.000000000    0.000000000    0.000000000    0.000000000
   48  SC 1 XY      0.000000000    0.000000000    0.000000000    0.000000000    0.000000000
   49  SC 1 XZ      0.000000000    0.000000000    0.000000000    0.000000000    0.000000000
   50  SC 1 YZ      0.000000000    0.000000000    0.000000000    0.000000000    0.000000000
   51  SC 1 XX      0.000000000    0.000000000    0.000000000    0.000000000    0.000000000
   52  SC 1 YY      0.000000000    0.000000000    0.000000000    0.000000000    0.000000000
   53  SC 1 ZZ      0.000000000    0.000000000    0.000000000    0.000000000    0.000000000
   54  SC 1 XY      0.000000000    0.000000000    0.000000000    0.000000000    0.000000000
   55  SC 1 XZ      0.000000000    0.000000000    0.000000000    0.000000000    0.000000000
   56  SC 1 YZ      0.000000000    0.000000000    0.000000000    0.000000000    0.000000000
   57  SC 1 XX      0.000000000    0.000000000    0.000000000    0.000000000    0.000000000
   58  SC 1 YY      0.000000000    0.000000000    0.000000000    0.000000000    0.000000000
   59  SC 1 ZZ      0.000000000    0.000000000    0.000000000    0.000000000    0.000000000
   60  SC 1 XY      0.000000000    0.000000000    0.000000000    0.000000000    0.000000000
   61  SC 1 XZ      0.000000000    0.000000000    0.000000000    0.000000000    0.000000000
   62  SC 1 YZ      0.000000000    0.000000000    0.000000000    0.000000000    0.000000000

                       11             12             13             14             15
                  -12.235281241  -12.235281236   -3.899422218  -10.066505943  -10.066505943
                       AG             AG             AG             B3G            B2G 
    1  SC 1  S      0.000000000    0.000000000    0.023381693    0.000000000    0.000000000
    2  SC 1  S      0.000000000    0.000000000    0.011614654    0.000000000    0.000000000
    3  SC 1  S      0.000000000    0.000000000    0.054633540    0.000000000    0.000000000
    4  SC 1  S      0.000000000    0.000000000    0.011189694    0.000000000    0.000000000
    5  SC 1  S      0.000000000    0.000000000   -0.413477349    0.000000000    0.000000000
    6  SC 1  S      0.000000000    0.000000000    0.951865356    0.000000000    0.000000000
    7  SC 1  S      0.000000000    0.000000000   -0.292287616    0.000000000    0.000000000
    8  SC 1  S      0.000000000    0.000000000    0.026684053    0.000000000    0.000000000
    9  SC 1  S      0.000000000    0.000000000    0.416156510    0.000000000    0.000000000
   10  SC 1  S      0.000000000    0.000000000   -0.877346841    0.000000000    0.000000000
   11  SC 1  S      0.000000000    0.000000000    0.979359950    0.000000000    0.000000000
   12  SC 1  X      0.000000000    0.000000000    0.000000000    0.000000000    0.000000000
   13  SC 1  Y      0.000000000    0.000000000    0.000000000    0.000000000    0.000000000
   14  SC 1  Z      0.000000000    0.000000000    0.000000000    0.000000000    0.000000000
   15  SC 1  X      0.000000000    0.000000000    0.000000000    0.000000000    0.000000000
   16  SC 1  Y      0.000000000    0.000000000    0.000000000    0.000000000    0.000000000
   17  SC 1  Z      0.000000000    0.000000000    0.000000000    0.000000000    0.000000000
   18  SC 1  X      0.000000000    0.000000000    0.000000000    0.000000000    0.000000000
   19  SC 1  Y      0.000000000    0.000000000    0.000000000    0.000000000    0.000000000
   20  SC 1  Z      0.000000000    0.000000000    0.000000000    0.000000000    0.000000000
   21  SC 1  X      0.000000000    0.000000000    0.000000000    0.000000000    0.000000000
   22  SC 1  Y      0.000000000    0.000000000    0.000000000    0.000000000    0.000000000
   23  SC 1  Z      0.000000000    0.000000000    0.000000000    0.000000000    0.000000000
   24  SC 1  X      0.000000000    0.000000000    0.000000000    0.000000000    0.000000000
   25  SC 1  Y      0.000000000    0.000000000    0.000000000    0.000000000    0.000000000
   26  SC 1  Z      0.000000000    0.000000000    0.000000000    0.000000000    0.000000000
   27  SC 1  X      0.000000000    0.000000000    0.000000000    0.000000000    0.000000000
   28  SC 1  Y      0.000000000    0.000000000    0.000000000    0.000000000    0.000000000
   29  SC 1  Z      0.000000000    0.000000000    0.000000000    0.000000000    0.000000000
   30  SC 1  X      0.000000000    0.000000000    0.000000000    0.000000000    0.000000000
   31  SC 1  Y      0.000000000    0.000000000    0.000000000    0.000000000    0.000000000
   32  SC 1  Z      0.000000000    0.000000000    0.000000000    0.000000000    0.000000000
   33  SC 1 XX     -0.007197577    0.012466568    0.000000000    0.000000000    0.000000000
   34  SC 1 YY     -0.007197577   -0.012466568    0.000000000    0.000000000    0.000000000
   35  SC 1 ZZ      0.014395153    0.000000000    0.000000000    0.000000000    0.000000000
   36  SC 1 XY      0.000000000    0.000000000    0.000000000    0.000000000    0.000000000
   37  SC 1 XZ      0.000000000    0.000000000    0.000000000    0.000000000    0.015212762
   38  SC 1 YZ      0.000000000    0.000000000    0.000000000    0.015212762    0.000000000
   39  SC 1 XX     -0.062186093    0.107709472    0.000000000    0.000000000    0.000000000
   40  SC 1 YY     -0.062186093   -0.107709472    0.000000000    0.000000000    0.000000000
   41  SC 1 ZZ      0.124372186    0.000000000    0.000000000    0.000000000    0.000000000
   42  SC 1 XY      0.000000000    0.000000000    0.000000000    0.000000000    0.000000000
   43  SC 1 XZ      0.000000000    0.000000000    0.000000000    0.000000000    0.062626220
   44  SC 1 YZ      0.000000000    0.000000000    0.000000000    0.062626220    0.000000000
   45  SC 1 XX     -0.174364343    0.302007901    0.000000000    0.000000000    0.000000000
   46  SC 1 YY     -0.174364343   -0.302007901    0.000000000    0.000000000    0.000000000
   47  SC 1 ZZ      0.348728686    0.000000000    0.000000000    0.000000000    0.000000000
   48  SC 1 XY      0.000000000    0.000000000    0.000000000    0.000000000    0.000000000
   49  SC 1 XZ      0.000000000    0.000000000    0.000000000    0.000000000    0.388409006
   50  SC 1 YZ      0.000000000    0.000000000    0.000000000    0.388409006    0.000000000
   51  SC 1 XX     -0.134568163    0.233078895    0.000000000    0.000000000    0.000000000
   52  SC 1 YY     -0.134568163   -0.233078895    0.000000000    0.000000000    0.000000000
   53  SC 1 ZZ      0.269136326    0.000000000    0.000000000    0.000000000    0.000000000
   54  SC 1 XY      0.000000000    0.000000000    0.000000000    0.000000000    0.000000000
   55  SC 1 XZ      0.000000000    0.000000000    0.000000000    0.000000000   -0.075189190
   56  SC 1 YZ      0.000000000    0.000000000    0.000000000   -0.075189190    0.000000000
   57  SC 1 XX     -0.221954468    0.384436416    0.000000000    0.000000000    0.000000000
   58  SC 1 YY     -0.221954468   -0.384436416    0.000000000    0.000000000    0.000000000
   59  SC 1 ZZ      0.443908937    0.000000000    0.000000000    0.000000000    0.000000000
   60  SC 1 XY      0.000000000    0.000000000    0.000000000    0.000000000    0.000000000
   61  SC 1 XZ      0.000000000    0.000000000    0.000000000    0.000000000    0.813563219
   62  SC 1 YZ      0.000000000    0.000000000    0.000000000    0.813563219    0.000000000

                       16             17             18             19             20
                  -10.066505943   -7.297054510   -7.297054510   -7.297054510   -7.193550369
                       B1G            B3U            B2U            B1U            AG  
    1  SC 1  S      0.000000000    0.000000000    0.000000000    0.000000000    0.000000000
    2  SC 1  S      0.000000000    0.000000000    0.000000000    0.000000000    0.000000000
    3  SC 1  S      0.000000000    0.000000000    0.000000000    0.000000000    0.000000000
    4  SC 1  S      0.000000000    0.000000000    0.000000000    0.000000000    0.000000000
    5  SC 1  S      0.000000000    0.000000000    0.000000000    0.000000000    0.000000000
    6  SC 1  S      0.000000000    0.000000000    0.000000000    0.000000000    0.000000000
    7  SC 1  S      0.000000000    0.000000000    0.000000000    0.000000000    0.000000000
    8  SC 1  S      0.000000000    0.000000000    0.000000000    0.000000000    0.000000000
    9  SC 1  S      0.000000000    0.000000000    0.000000000    0.000000000    0.000000000
   10  SC 1  S      0.000000000    0.000000000    0.000000000    0.000000000    0.000000000
   11  SC 1  S      0.000000000    0.000000000    0.000000000    0.000000000    0.000000000
   12  SC 1  X      0.000000000    0.003174661    0.000000000    0.000000000    0.000000000
   13  SC 1  Y      0.000000000    0.000000000    0.003174661    0.000000000    0.000000000
   14  SC 1  Z      0.000000000    0.000000000    0.000000000    0.003174661    0.000000000
   15  SC 1  X      0.000000000    0.134095819    0.000000000    0.000000000    0.000000000
   16  SC 1  Y      0.000000000    0.000000000    0.134095819    0.000000000    0.000000000
   17  SC 1  Z      0.000000000    0.000000000    0.000000000    0.134095819    0.000000000
   18  SC 1  X      0.000000000   -0.584667810    0.000000000    0.000000000    0.000000000
   19  SC 1  Y      0.000000000    0.000000000   -0.584667810    0.000000000    0.000000000
   20  SC 1  Z      0.000000000    0.000000000    0.000000000   -0.584667810    0.000000000
   21  SC 1  X      0.000000000    0.475160756    0.000000000    0.000000000    0.000000000
   22  SC 1  Y      0.000000000    0.000000000    0.475160756    0.000000000    0.000000000
   23  SC 1  Z      0.000000000    0.000000000    0.000000000    0.475160756    0.000000000
   24  SC 1  X      0.000000000    0.395540355    0.000000000    0.000000000    0.000000000
   25  SC 1  Y      0.000000000    0.000000000    0.395540355    0.000000000    0.000000000
   26  SC 1  Z      0.000000000    0.000000000    0.000000000    0.395540355    0.000000000
   27  SC 1  X      0.000000000   -1.625916747    0.000000000    0.000000000    0.000000000
   28  SC 1  Y      0.000000000    0.000000000   -1.625916747    0.000000000    0.000000000
   29  SC 1  Z      0.000000000    0.000000000    0.000000000   -1.625916747    0.000000000
   30  SC 1  X      0.000000000    1.849632534    0.000000000    0.000000000    0.000000000
   31  SC 1  Y      0.000000000    0.000000000    1.849632534    0.000000000    0.000000000
   32  SC 1  Z      0.000000000    0.000000000    0.000000000    1.849632534    0.000000000
   33  SC 1 XX      0.000000000    0.000000000    0.000000000    0.000000000   -0.005500070
   34  SC 1 YY      0.000000000    0.000000000    0.000000000    0.000000000   -0.005500070
   35  SC 1 ZZ      0.000000000    0.000000000    0.000000000    0.000000000    0.011000140
   36  SC 1 XY      0.015212762    0.000000000    0.000000000    0.000000000    0.000000000
   37  SC 1 XZ      0.000000000    0.000000000    0.000000000    0.000000000    0.000000000
   38  SC 1 YZ      0.000000000    0.000000000    0.000000000    0.000000000    0.000000000
   39  SC 1 XX      0.000000000    0.000000000    0.000000000    0.000000000    0.137206523
   40  SC 1 YY      0.000000000    0.000000000    0.000000000    0.000000000    0.137206523
   41  SC 1 ZZ      0.000000000    0.000000000    0.000000000    0.000000000   -0.274413045
   42  SC 1 XY      0.062626220    0.000000000    0.000000000    0.000000000    0.000000000
   43  SC 1 XZ      0.000000000    0.000000000    0.000000000    0.000000000    0.000000000
   44  SC 1 YZ      0.000000000    0.000000000    0.000000000    0.000000000    0.000000000
   45  SC 1 XX      0.000000000    0.000000000    0.000000000    0.000000000   -0.194757632
   46  SC 1 YY      0.000000000    0.000000000    0.000000000    0.000000000   -0.194757632
   47  SC 1 ZZ      0.000000000    0.000000000    0.000000000    0.000000000    0.389515265
   48  SC 1 XY      0.388409006    0.000000000    0.000000000    0.000000000    0.000000000
   49  SC 1 XZ      0.000000000    0.000000000    0.000000000    0.000000000    0.000000000
   50  SC 1 YZ      0.000000000    0.000000000    0.000000000    0.000000000    0.000000000
   51  SC 1 XX      0.000000000    0.000000000    0.000000000    0.000000000    0.863941284
   52  SC 1 YY      0.000000000    0.000000000    0.000000000    0.000000000    0.863941284
   53  SC 1 ZZ      0.000000000    0.000000000    0.000000000    0.000000000   -1.727882568
   54  SC 1 XY     -0.075189190    0.000000000    0.000000000    0.000000000    0.000000000
   55  SC 1 XZ      0.000000000    0.000000000    0.000000000    0.000000000    0.000000000
   56  SC 1 YZ      0.000000000    0.000000000    0.000000000    0.000000000    0.000000000
   57  SC 1 XX      0.000000000    0.000000000    0.000000000    0.000000000   -0.894488053
   58  SC 1 YY      0.000000000    0.000000000    0.000000000    0.000000000   -0.894488053
   59  SC 1 ZZ      0.000000000    0.000000000    0.000000000    0.000000000    1.788976106
   60  SC 1 XY      0.813563219    0.000000000    0.000000000    0.000000000    0.000000000
   61  SC 1 XZ      0.000000000    0.000000000    0.000000000    0.000000000    0.000000000
   62  SC 1 YZ      0.000000000    0.000000000    0.000000000    0.000000000    0.000000000

                       21             22             23             24             25
                   -7.193550356   -8.914585004   -8.914585004   -8.914585004   -6.891476238
                       AG             B2G            B3G            B1G            AG  
    1  SC 1  S      0.000000000    0.000000000    0.000000000    0.000000000   -0.012660966
    2  SC 1  S      0.000000000    0.000000000    0.000000000    0.000000000   -0.024691538
    3  SC 1  S      0.000000000    0.000000000    0.000000000    0.000000000    0.645896948
    4  SC 1  S      0.000000000    0.000000000    0.000000000    0.000000000    0.041544673
    5  SC 1  S      0.000000000    0.000000000    0.000000000    0.000000000   -1.295339193
    6  SC 1  S      0.000000000    0.000000000    0.000000000    0.000000000    2.705949768
    7  SC 1  S      0.000000000    0.000000000    0.000000000    0.000000000   -1.961290449
    8  SC 1  S      0.000000000    0.000000000    0.000000000    0.000000000    0.111848754
    9  SC 1  S      0.000000000    0.000000000    0.000000000    0.000000000    1.444273713
   10  SC 1  S      0.000000000    0.000000000    0.000000000    0.000000000   -1.738304792
   11  SC 1  S      0.000000000    0.000000000    0.000000000    0.000000000    0.831556856
   12  SC 1  X      0.000000000    0.000000000    0.000000000    0.000000000    0.000000000
   13  SC 1  Y      0.000000000    0.000000000    0.000000000    0.000000000    0.000000000
   14  SC 1  Z      0.000000000    0.000000000    0.000000000    0.000000000    0.000000000
   15  SC 1  X      0.000000000    0.000000000    0.000000000    0.000000000    0.000000000
   16  SC 1  Y      0.000000000    0.000000000    0.000000000    0.000000000    0.000000000
   17  SC 1  Z      0.000000000    0.000000000    0.000000000    0.000000000    0.000000000
   18  SC 1  X      0.000000000    0.000000000    0.000000000    0.000000000    0.000000000
   19  SC 1  Y      0.000000000    0.000000000    0.000000000    0.000000000    0.000000000
   20  SC 1  Z      0.000000000    0.000000000    0.000000000    0.000000000    0.000000000
   21  SC 1  X      0.000000000    0.000000000    0.000000000    0.000000000    0.000000000
   22  SC 1  Y      0.000000000    0.000000000    0.000000000    0.000000000    0.000000000
   23  SC 1  Z      0.000000000    0.000000000    0.000000000    0.000000000    0.000000000
   24  SC 1  X      0.000000000    0.000000000    0.000000000    0.000000000    0.000000000
   25  SC 1  Y      0.000000000    0.000000000    0.000000000    0.000000000    0.000000000
   26  SC 1  Z      0.000000000    0.000000000    0.000000000    0.000000000    0.000000000
   27  SC 1  X      0.000000000    0.000000000    0.000000000    0.000000000    0.000000000
   28  SC 1  Y      0.000000000    0.000000000    0.000000000    0.000000000    0.000000000
   29  SC 1  Z      0.000000000    0.000000000    0.000000000    0.000000000    0.000000000
   30  SC 1  X      0.000000000    0.000000000    0.000000000    0.000000000    0.000000000
   31  SC 1  Y      0.000000000    0.000000000    0.000000000    0.000000000    0.000000000
   32  SC 1  Z      0.000000000    0.000000000    0.000000000    0.000000000    0.000000000
   33  SC 1 XX      0.009526401    0.000000000    0.000000000    0.000000000    0.000000000
   34  SC 1 YY     -0.009526401    0.000000000    0.000000000    0.000000000    0.000000000
   35  SC 1 ZZ      0.000000000    0.000000000    0.000000000    0.000000000    0.000000000
   36  SC 1 XY      0.000000000    0.000000000    0.000000000   -0.010512026    0.000000000
   37  SC 1 XZ      0.000000000   -0.010512026    0.000000000    0.000000000    0.000000000
   38  SC 1 YZ      0.000000000    0.000000000   -0.010512026    0.000000000    0.000000000
   39  SC 1 XX     -0.237648668    0.000000000    0.000000000    0.000000000    0.000000000
   40  SC 1 YY      0.237648668    0.000000000    0.000000000    0.000000000    0.000000000
   41  SC 1 ZZ      0.000000000    0.000000000    0.000000000    0.000000000    0.000000000
   42  SC 1 XY      0.000000000    0.000000000    0.000000000    0.305421800    0.000000000
   43  SC 1 XZ      0.000000000    0.305421800    0.000000000    0.000000000    0.000000000
   44  SC 1 YZ      0.000000000    0.000000000    0.305421800    0.000000000    0.000000000
   45  SC 1 XX      0.337330118    0.000000000    0.000000000    0.000000000    0.000000000
   46  SC 1 YY     -0.337330118    0.000000000    0.000000000    0.000000000    0.000000000
   47  SC 1 ZZ      0.000000000    0.000000000    0.000000000    0.000000000    0.000000000
   48  SC 1 XY      0.000000000    0.000000000    0.000000000   -0.390615016    0.000000000
   49  SC 1 XZ      0.000000000   -0.390615016    0.000000000    0.000000000    0.000000000
   50  SC 1 YZ      0.000000000    0.000000000   -0.390615016    0.000000000    0.000000000
   51  SC 1 XX     -1.496390204    0.000000000    0.000000000    0.000000000    0.000000000
   52  SC 1 YY      1.496390204    0.000000000    0.000000000    0.000000000    0.000000000
   53  SC 1 ZZ      0.000000000    0.000000000    0.000000000    0.000000000    0.000000000
   54  SC 1 XY      0.000000000    0.000000000    0.000000000    1.861212708    0.000000000
   55  SC 1 XZ      0.000000000    1.861212708    0.000000000    0.000000000    0.000000000
   56  SC 1 YZ      0.000000000    0.000000000    1.861212708    0.000000000    0.000000000
   57  SC 1 XX      1.549298756    0.000000000    0.000000000    0.000000000    0.000000000
   58  SC 1 YY     -1.549298756    0.000000000    0.000000000    0.000000000    0.000000000
   59  SC 1 ZZ      0.000000000    0.000000000    0.000000000    0.000000000    0.000000000
   60  SC 1 XY      0.000000000    0.000000000    0.000000000   -1.692643772    0.000000000
   61  SC 1 XZ      0.000000000   -1.692643772    0.000000000    0.000000000    0.000000000
   62  SC 1 YZ      0.000000000    0.000000000   -1.692643772    0.000000000    0.000000000

                       26             27             28             29             30
                  -11.434149366  -11.434149357  -11.815100567  -11.815100567 2294.300505005
                       AG             AG             B3G            B2G            AG  
    1  SC 1  S      0.000000000    0.000000000    0.000000000    0.000000000   -5.818879748
    2  SC 1  S      0.000000000    0.000000000    0.000000000    0.000000000   38.987319138
    3  SC 1  S      0.000000000    0.000000000    0.000000000    0.000000000   -8.110502229
    4  SC 1  S      0.000000000    0.000000000    0.000000000    0.000000000  -25.632501619
    5  SC 1  S      0.000000000    0.000000000    0.000000000    0.000000000   -2.122261805
    6  SC 1  S      0.000000000    0.000000000    0.000000000    0.000000000    0.874691593
    7  SC 1  S      0.000000000    0.000000000    0.000000000    0.000000000   -0.206077721
    8  SC 1  S      0.000000000    0.000000000    0.000000000    0.000000000    2.586991922
    9  SC 1  S      0.000000000    0.000000000    0.000000000    0.000000000    0.014771198
   10  SC 1  S      0.000000000    0.000000000    0.000000000    0.000000000   -0.007514547
   11  SC 1  S      0.000000000    0.000000000    0.000000000    0.000000000    0.002225286
   12  SC 1  X      0.000000000    0.000000000    0.000000000    0.000000000   -0.000000000
   13  SC 1  Y      0.000000000    0.000000000    0.000000000    0.000000000   -0.000000000
   14  SC 1  Z      0.000000000    0.000000000    0.000000000    0.000000000   -0.000000000
   15  SC 1  X      0.000000000    0.000000000    0.000000000    0.000000000   -0.000000000
   16  SC 1  Y      0.000000000    0.000000000    0.000000000    0.000000000   -0.000000000
   17  SC 1  Z      0.000000000    0.000000000    0.000000000    0.000000000   -0.000000000
   18  SC 1  X      0.000000000    0.000000000    0.000000000    0.000000000   -0.000000000
   19  SC 1  Y      0.000000000    0.000000000    0.000000000    0.000000000   -0.000000000
   20  SC 1  Z      0.000000000    0.000000000    0.000000000    0.000000000   -0.000000000
   21  SC 1  X      0.000000000    0.000000000    0.000000000    0.000000000   -0.000000000
   22  SC 1  Y      0.000000000    0.000000000    0.000000000    0.000000000   -0.000000000
   23  SC 1  Z      0.000000000    0.000000000    0.000000000    0.000000000   -0.000000000
   24  SC 1  X      0.000000000    0.000000000    0.000000000    0.000000000   -0.000000000
   25  SC 1  Y      0.000000000    0.000000000    0.000000000    0.000000000   -0.000000000
   26  SC 1  Z      0.000000000    0.000000000    0.000000000    0.000000000   -0.000000000
   27  SC 1  X      0.000000000    0.000000000    0.000000000    0.000000000   -0.000000000
   28  SC 1  Y      0.000000000    0.000000000    0.000000000    0.000000000   -0.000000000
   29  SC 1  Z      0.000000000    0.000000000    0.000000000    0.000000000   -0.000000000
   30  SC 1  X      0.000000000    0.000000000    0.000000000    0.000000000   -0.000000000
   31  SC 1  Y      0.000000000    0.000000000    0.000000000    0.000000000   -0.000000000
   32  SC 1  Z      0.000000000    0.000000000    0.000000000    0.000000000   -0.000000000
   33  SC 1 XX     -0.077430057    0.044704264    0.000000000    0.000000000   -0.000000000
   34  SC 1 YY      0.077430057    0.044704264    0.000000000    0.000000000   -0.000000000
   35  SC 1 ZZ      0.000000000   -0.089408529    0.000000000    0.000000000   -0.000000000
   36  SC 1 XY      0.000000000    0.000000000    0.000000000    0.000000000   -0.000000000
   37  SC 1 XZ      0.000000000    0.000000000    0.000000000   -0.090438777   -0.000000000
   38  SC 1 YZ      0.000000000    0.000000000   -0.090438777    0.000000000   -0.000000000
   39  SC 1 XX      0.338793602   -0.195602577    0.000000000    0.000000000   -0.000000000
   40  SC 1 YY     -0.338793602   -0.195602577    0.000000000    0.000000000   -0.000000000
   41  SC 1 ZZ      0.000000000    0.391205155    0.000000000    0.000000000   -0.000000000
   42  SC 1 XY      0.000000000    0.000000000    0.000000000    0.000000000   -0.000000000
   43  SC 1 XZ      0.000000000    0.000000000    0.000000000    0.391845482   -0.000000000
   44  SC 1 YZ      0.000000000    0.000000000    0.391845482    0.000000000   -0.000000000
   45  SC 1 XX     -2.178005277    1.257471932    0.000000000    0.000000000   -0.000000000
   46  SC 1 YY      2.178005277    1.257471932    0.000000000    0.000000000   -0.000000000
   47  SC 1 ZZ      0.000000000   -2.514943865    0.000000000    0.000000000   -0.000000000
   48  SC 1 XY      0.000000000    0.000000000    0.000000000    0.000000000   -0.000000000
   49  SC 1 XZ      0.000000000    0.000000000    0.000000000   -2.527370191   -0.000000000
   50  SC 1 YZ      0.000000000    0.000000000   -2.527370191    0.000000000   -0.000000000
   51  SC 1 XX      2.771256229   -1.599985531    0.000000000    0.000000000   -0.000000000
   52  SC 1 YY     -2.771256229   -1.599985531    0.000000000    0.000000000   -0.000000000
   53  SC 1 ZZ      0.000000000    3.199971062    0.000000000    0.000000000   -0.000000000
   54  SC 1 XY      0.000000000    0.000000000    0.000000000    0.000000000   -0.000000000
   55  SC 1 XZ      0.000000000    0.000000000    0.000000000    3.144813271   -0.000000000
   56  SC 1 YZ      0.000000000    0.000000000    3.144813271    0.000000000   -0.000000000
   57  SC 1 XX     -1.180197934    0.681387596    0.000000000    0.000000000   -0.000000000
   58  SC 1 YY      1.180197934    0.681387596    0.000000000    0.000000000   -0.000000000
   59  SC 1 ZZ      0.000000000   -1.362775193    0.000000000    0.000000000   -0.000000000
   60  SC 1 XY      0.000000000    0.000000000    0.000000000    0.000000000   -0.000000000
   61  SC 1 XZ      0.000000000    0.000000000    0.000000000   -1.317415858   -0.000000000
   62  SC 1 YZ      0.000000000    0.000000000   -1.317415858    0.000000000   -0.000000000

                       31             32             33             34             35
                   37.747651659   -6.104165842   -6.104165842   52.004364528  139.157392266
                       AG             AG             AG             AG             AG  
    1  SC 1  S     -0.234651862    0.000000000    0.000000000    0.293106954   -0.994430274
    2  SC 1  S     -0.932745761    0.000000000    0.000000000   -1.168094861    0.960254462
    3  SC 1  S     -6.829210193    0.000000000    0.000000000   -0.309050510   -2.436664705
    4  SC 1  S     -2.638240518    0.000000000    0.000000000   -2.140830741    2.514321149
    5  SC 1  S     25.490193757    0.000000000    0.000000000    3.883566277    0.578937721
    6  SC 1  S    -24.722668586    0.000000000    0.000000000    3.053367880    0.407692310
    7  SC 1  S     10.709448646    0.000000000    0.000000000   -3.375603578   -0.894547229
    8  SC 1  S     -3.891381169    0.000000000    0.000000000   -2.038634069    0.821353690
    9  SC 1  S     -1.752490181    0.000000000    0.000000000    0.956561540    0.347084002
   10  SC 1  S      1.296231719    0.000000000    0.000000000   -0.766251925   -0.290748457
   11  SC 1  S     -0.515164722    0.000000000    0.000000000    0.308621963    0.118761599
   12  SC 1  X     -0.000000000    0.000000000    0.000000000   -0.000000000   -0.000000000
   13  SC 1  Y     -0.000000000    0.000000000    0.000000000   -0.000000000   -0.000000000
   14  SC 1  Z     -0.000000000    0.000000000    0.000000000   -0.000000000   -0.000000000
   15  SC 1  X     -0.000000000    0.000000000    0.000000000   -0.000000000   -0.000000000
   16  SC 1  Y     -0.000000000    0.000000000    0.000000000   -0.000000000   -0.000000000
   17  SC 1  Z     -0.000000000    0.000000000    0.000000000   -0.000000000   -0.000000000
   18  SC 1  X     -0.000000000    0.000000000    0.000000000   -0.000000000   -0.000000000
   19  SC 1  Y     -0.000000000    0.000000000    0.000000000   -0.000000000   -0.000000000
   20  SC 1  Z     -0.000000000    0.000000000    0.000000000   -0.000000000   -0.000000000
   21  SC 1  X     -0.000000000    0.000000000    0.000000000   -0.000000000   -0.000000000
   22  SC 1  Y     -0.000000000    0.000000000    0.000000000   -0.000000000   -0.000000000
   23  SC 1  Z     -0.000000000    0.000000000    0.000000000   -0.000000000   -0.000000000
   24  SC 1  X     -0.000000000    0.000000000    0.000000000   -0.000000000   -0.000000000
   25  SC 1  Y     -0.000000000    0.000000000    0.000000000   -0.000000000   -0.000000000
   26  SC 1  Z     -0.000000000    0.000000000    0.000000000   -0.000000000   -0.000000000
   27  SC 1  X     -0.000000000    0.000000000    0.000000000   -0.000000000   -0.000000000
   28  SC 1  Y     -0.000000000    0.000000000    0.000000000   -0.000000000   -0.000000000
   29  SC 1  Z     -0.000000000    0.000000000    0.000000000   -0.000000000   -0.000000000
   30  SC 1  X     -0.000000000    0.000000000    0.000000000   -0.000000000   -0.000000000
   31  SC 1  Y     -0.000000000    0.000000000    0.000000000   -0.000000000   -0.000000000
   32  SC 1  Z     -0.000000000    0.000000000    0.000000000   -0.000000000   -0.000000000
   33  SC 1 XX     -0.000000000    1.110870792   -0.146380177   -0.000000000   -0.000000000
   34  SC 1 YY     -0.000000000   -0.682204348   -0.888852238   -0.000000000   -0.000000000
   35  SC 1 ZZ     -0.000000000   -0.428666444    1.035232415   -0.000000000   -0.000000000
   36  SC 1 XY     -0.000000000    0.000000000    0.000000000   -0.000000000   -0.000000000
   37  SC 1 XZ     -0.000000000    0.000000000    0.000000000   -0.000000000   -0.000000000
   38  SC 1 YZ     -0.000000000    0.000000000    0.000000000   -0.000000000   -0.000000000
   39  SC 1 XX     -0.000000000   -3.492246721    0.460175654   -0.000000000   -0.000000000
   40  SC 1 YY     -0.000000000    2.144647167    2.794286550   -0.000000000   -0.000000000
   41  SC 1 ZZ     -0.000000000    1.347599554   -3.254462204   -0.000000000   -0.000000000
   42  SC 1 XY     -0.000000000    0.000000000    0.000000000   -0.000000000   -0.000000000
   43  SC 1 XZ     -0.000000000    0.000000000    0.000000000   -0.000000000   -0.000000000
   44  SC 1 YZ     -0.000000000    0.000000000    0.000000000   -0.000000000   -0.000000000
   45  SC 1 XX     -0.000000000    4.290441200   -0.565354268   -0.000000000   -0.000000000
   46  SC 1 YY     -0.000000000   -2.634831757   -3.432953940   -0.000000000   -0.000000000
   47  SC 1 ZZ     -0.000000000   -1.655609443    3.998308207   -0.000000000   -0.000000000
   48  SC 1 XY     -0.000000000    0.000000000    0.000000000   -0.000000000   -0.000000000
   49  SC 1 XZ     -0.000000000    0.000000000    0.000000000   -0.000000000   -0.000000000
   50  SC 1 YZ     -0.000000000    0.000000000    0.000000000   -0.000000000   -0.000000000
   51  SC 1 XX     -0.000000000   -2.749899445    0.362356064   -0.000000000   -0.000000000
   52  SC 1 YY     -0.000000000    1.688759279    2.200304746   -0.000000000   -0.000000000
   53  SC 1 ZZ     -0.000000000    1.061140166   -2.562660810   -0.000000000   -0.000000000
   54  SC 1 XY     -0.000000000    0.000000000    0.000000000   -0.000000000   -0.000000000
   55  SC 1 XZ     -0.000000000    0.000000000    0.000000000   -0.000000000   -0.000000000
   56  SC 1 YZ     -0.000000000    0.000000000    0.000000000   -0.000000000   -0.000000000
   57  SC 1 XX     -0.000000000    0.946827817   -0.124764126   -0.000000000   -0.000000000
   58  SC 1 YY     -0.000000000   -0.581462811   -0.757594880   -0.000000000   -0.000000000
   59  SC 1 ZZ     -0.000000000   -0.365365006    0.882359006   -0.000000000   -0.000000000
   60  SC 1 XY     -0.000000000    0.000000000    0.000000000   -0.000000000   -0.000000000
   61  SC 1 XZ     -0.000000000    0.000000000    0.000000000   -0.000000000   -0.000000000
   62  SC 1 YZ     -0.000000000    0.000000000    0.000000000   -0.000000000   -0.000000000

                       36             37             38             39             40
                  -14.319696336  -14.319696346    8.532192879   75.488193445   49.071289614
                       AG             AG             AG             B3U            B3U 
    1  SC 1  S     -0.000000000    0.000000000    0.954338818    0.000000000    0.000000000
    2  SC 1  S     -0.000000000    0.000000000   -0.054191885    0.000000000    0.000000000
    3  SC 1  S     -0.000000000    0.000000000   -0.222968892    0.000000000    0.000000000
    4  SC 1  S     -0.000000000    0.000000000   -0.165862977    0.000000000    0.000000000
    5  SC 1  S     -0.000000000    0.000000000   -0.047992040    0.000000000    0.000000000
    6  SC 1  S     -0.000000000    0.000000000   -0.213562096    0.000000000    0.000000000
    7  SC 1  S     -0.000000000    0.000000000   -0.260218792    0.000000000    0.000000000
    8  SC 1  S     -0.000000000    0.000000000    0.630844494    0.000000000    0.000000000
    9  SC 1  S     -0.000000000    0.000000000    0.179139258    0.000000000    0.000000000
   10  SC 1  S     -0.000000000    0.000000000   -0.157330394    0.000000000    0.000000000
   11  SC 1  S     -0.000000000    0.000000000    0.064933079    0.000000000    0.000000000
   12  SC 1  X     -0.000000000    0.000000000    0.000000000   -0.945389726    0.730808299
   13  SC 1  Y     -0.000000000    0.000000000    0.000000000    0.000000000    0.000000000
   14  SC 1  Z     -0.000000000    0.000000000    0.000000000    0.000000000    0.000000000
   15  SC 1  X     -0.000000000    0.000000000    0.000000000   -0.611146307   -1.739356771
   16  SC 1  Y     -0.000000000    0.000000000    0.000000000    0.000000000    0.000000000
   17  SC 1  Z     -0.000000000    0.000000000    0.000000000    0.000000000    0.000000000
   18  SC 1  X     -0.000000000    0.000000000    0.000000000   19.653785816   -0.365328606
   19  SC 1  Y     -0.000000000    0.000000000    0.000000000    0.000000000    0.000000000
   20  SC 1  Z     -0.000000000    0.000000000    0.000000000    0.000000000    0.000000000
   21  SC 1  X     -0.000000000    0.000000000    0.000000000   -7.868236484   -3.486007868
   22  SC 1  Y     -0.000000000    0.000000000    0.000000000    0.000000000    0.000000000
   23  SC 1  Z     -0.000000000    0.000000000    0.000000000    0.000000000    0.000000000
   24  SC 1  X     -0.000000000    0.000000000    0.000000000  -15.370637478    2.904054281
   25  SC 1  Y     -0.000000000    0.000000000    0.000000000    0.000000000    0.000000000
   26  SC 1  Z     -0.000000000    0.000000000    0.000000000    0.000000000    0.000000000
   27  SC 1  X     -0.000000000    0.000000000    0.000000000    5.527278387    3.858759089
   28  SC 1  Y     -0.000000000    0.000000000    0.000000000    0.000000000    0.000000000
   29  SC 1  Z     -0.000000000    0.000000000    0.000000000    0.000000000    0.000000000
   30  SC 1  X     -0.000000000    0.000000000    0.000000000   -1.568999380   -1.410874576
   31  SC 1  Y     -0.000000000    0.000000000    0.000000000    0.000000000    0.000000000
   32  SC 1  Z     -0.000000000    0.000000000    0.000000000    0.000000000    0.000000000
   33  SC 1 XX     -0.706195004   -1.028894811    0.000000000    0.000000000    0.000000000
   34  SC 1 YY     -0.537951542    1.126030219    0.000000000    0.000000000    0.000000000
   35  SC 1 ZZ      1.244146546   -0.097135408    0.000000000    0.000000000    0.000000000
   36  SC 1 XY     -0.000000000    0.000000000    0.000000000    0.000000000    0.000000000
   37  SC 1 XZ     -0.000000000    0.000000000    0.000000000    0.000000000    0.000000000
   38  SC 1 YZ     -0.000000000    0.000000000    0.000000000    0.000000000    0.000000000
   39  SC 1 XX      0.265064208    0.386186799    0.000000000    0.000000000    0.000000000
   40  SC 1 YY      0.201915475   -0.422645737    0.000000000    0.000000000    0.000000000
   41  SC 1 ZZ     -0.466979684    0.036458938    0.000000000    0.000000000    0.000000000
   42  SC 1 XY     -0.000000000    0.000000000    0.000000000    0.000000000    0.000000000
   43  SC 1 XZ     -0.000000000    0.000000000    0.000000000    0.000000000    0.000000000
   44  SC 1 YZ     -0.000000000    0.000000000    0.000000000    0.000000000    0.000000000
   45  SC 1 XX      0.138532694    0.201835993    0.000000000    0.000000000    0.000000000
   46  SC 1 YY      0.105528751   -0.220890829    0.000000000    0.000000000    0.000000000
   47  SC 1 ZZ     -0.244061445    0.019054836    0.000000000    0.000000000    0.000000000
   48  SC 1 XY     -0.000000000    0.000000000    0.000000000    0.000000000    0.000000000
   49  SC 1 XZ     -0.000000000    0.000000000    0.000000000    0.000000000    0.000000000
   50  SC 1 YZ     -0.000000000    0.000000000    0.000000000    0.000000000    0.000000000
   51  SC 1 XX     -0.165335200   -0.240886056    0.000000000    0.000000000    0.000000000
   52  SC 1 YY     -0.125945844    0.263627511    0.000000000    0.000000000    0.000000000
   53  SC 1 ZZ      0.291281044   -0.022741455    0.000000000    0.000000000    0.000000000
[...]
   43  SC 1 XZ     -0.000000000    0.088385843   -0.000000000    0.000000000    0.000000000
   44  SC 1 YZ      0.088385889   -0.000000000   -0.000000000    0.000000000    0.000000000
   45  SC 1 XX     -0.000000000   -0.000000000    0.054199306    0.313182451    0.333998218
   46  SC 1 YY     -0.000000000   -0.000000000    0.054199070   -0.313182325    0.333998447
   47  SC 1 ZZ     -0.000000000   -0.000000000   -0.108398376   -0.000000126   -0.667996666
   48  SC 1 XY     -0.000000000   -0.000000000   -0.000000000    0.000000000    0.000000000
   49  SC 1 XZ     -0.000000000    0.462986415   -0.000000000    0.000000000    0.000000000
   50  SC 1 YZ      0.462986008   -0.000000000   -0.000000000    0.000000000    0.000000000
   51  SC 1 XX     -0.000000000   -0.000000000   -0.002602258    0.535001584    0.104667290
   52  SC 1 YY     -0.000000000   -0.000000000   -0.002601213   -0.535001767    0.104666972
   53  SC 1 ZZ     -0.000000000   -0.000000000    0.005203472    0.000000183   -0.209334261
   54  SC 1 XY     -0.000000000   -0.000000000   -0.000000000    0.000000000    0.000000000
   55  SC 1 XZ     -0.000000000    0.045690029   -0.000000000    0.000000000    0.000000000
   56  SC 1 YZ      0.045690429   -0.000000000   -0.000000000    0.000000000    0.000000000
   57  SC 1 XX     -0.000000000   -0.000000000   -0.017096636   -1.147074927   -0.540939375
   58  SC 1 YY     -0.000000000   -0.000000000   -0.017097889    1.147074994   -0.540939182
   59  SC 1 ZZ     -0.000000000   -0.000000000    0.034194525   -0.000000066    1.081878557
   60  SC 1 XY     -0.000000000   -0.000000000   -0.000000000    0.000000000    0.000000000
   61  SC 1 XZ     -0.000000000    0.605861847   -0.000000000    0.000000000    0.000000000
   62  SC 1 YZ      0.605861775   -0.000000000   -0.000000000    0.000000000    0.000000000

                       21             22             23             24             25
                    0.002461197    0.002443735    0.002443735    0.000286359    0.000188833
                       B1G            B2G            B3G            AG             AG  
    1  SC 1  S     -0.000000000   -0.000000000   -0.000000000    0.002132566   -0.000000007
    2  SC 1  S     -0.000000000   -0.000000000   -0.000000000   -0.011251301    0.000000019
    3  SC 1  S     -0.000000000   -0.000000000   -0.000000000    0.458307893   -0.000000834
    4  SC 1  S     -0.000000000   -0.000000000   -0.000000000    0.032902839   -0.000000061
    5  SC 1  S     -0.000000000   -0.000000000   -0.000000000   -1.054064364    0.000001954
    6  SC 1  S     -0.000000000   -0.000000000   -0.000000000    2.244829440   -0.000004173
    7  SC 1  S     -0.000000000   -0.000000000   -0.000000000   -1.438931034    0.000002628
    8  SC 1  S     -0.000000000   -0.000000000   -0.000000000    0.087028927   -0.000000160
    9  SC 1  S     -0.000000000   -0.000000000   -0.000000000    1.159969826   -0.000002149
   10  SC 1  S     -0.000000000   -0.000000000   -0.000000000   -1.564056555    0.000002937
   11  SC 1  S     -0.000000000   -0.000000000   -0.000000000    1.008297714   -0.000001951
   12  SC 1  X     -0.000000000   -0.000000000   -0.000000000   -0.000000000   -0.000000000
   13  SC 1  Y     -0.000000000   -0.000000000   -0.000000000   -0.000000000   -0.000000000
   14  SC 1  Z     -0.000000000   -0.000000000   -0.000000000   -0.000000000   -0.000000000
   15  SC 1  X     -0.000000000   -0.000000000   -0.000000000   -0.000000000   -0.000000000
   16  SC 1  Y     -0.000000000   -0.000000000   -0.000000000   -0.000000000   -0.000000000
   17  SC 1  Z     -0.000000000   -0.000000000   -0.000000000   -0.000000000   -0.000000000
   18  SC 1  X     -0.000000000   -0.000000000   -0.000000000   -0.000000000   -0.000000000
   19  SC 1  Y     -0.000000000   -0.000000000   -0.000000000   -0.000000000   -0.000000000
   20  SC 1  Z     -0.000000000   -0.000000000   -0.000000000   -0.000000000   -0.000000000
   21  SC 1  X     -0.000000000   -0.000000000   -0.000000000   -0.000000000   -0.000000000
   22  SC 1  Y     -0.000000000   -0.000000000   -0.000000000   -0.000000000   -0.000000000
   23  SC 1  Z     -0.000000000   -0.000000000   -0.000000000   -0.000000000   -0.000000000
   24  SC 1  X     -0.000000000   -0.000000000   -0.000000000   -0.000000000   -0.000000000
   25  SC 1  Y     -0.000000000   -0.000000000   -0.000000000   -0.000000000   -0.000000000
   26  SC 1  Z     -0.000000000   -0.000000000   -0.000000000   -0.000000000   -0.000000000
   27  SC 1  X     -0.000000000   -0.000000000   -0.000000000   -0.000000000   -0.000000000
   28  SC 1  Y     -0.000000000   -0.000000000   -0.000000000   -0.000000000   -0.000000000
   29  SC 1  Z     -0.000000000   -0.000000000   -0.000000000   -0.000000000   -0.000000000
   30  SC 1  X     -0.000000000   -0.000000000   -0.000000000   -0.000000000   -0.000000000
   31  SC 1  Y     -0.000000000   -0.000000000   -0.000000000   -0.000000000   -0.000000000
   32  SC 1  Z     -0.000000000   -0.000000000   -0.000000000   -0.000000000   -0.000000000
   33  SC 1 XX     -0.000000000   -0.000000000   -0.000000000    0.024807166    0.076765677
   34  SC 1 YY     -0.000000000   -0.000000000   -0.000000000    0.024806928   -0.076765722
   35  SC 1 ZZ     -0.000000000   -0.000000000   -0.000000000   -0.049614094    0.000000045
   36  SC 1 XY      0.017908156   -0.000000000   -0.000000000   -0.000000000   -0.000000000
   37  SC 1 XZ     -0.000000000   -0.027069737   -0.000000000   -0.000000000   -0.000000000
   38  SC 1 YZ     -0.000000000   -0.000000000   -0.027069737   -0.000000000   -0.000000000
   39  SC 1 XX     -0.000000000   -0.000000000   -0.000000000   -0.138918108   -0.394000855
   40  SC 1 YY     -0.000000000   -0.000000000   -0.000000000   -0.138916858    0.394001112
   41  SC 1 ZZ     -0.000000000   -0.000000000   -0.000000000    0.277834966   -0.000000257
   42  SC 1 XY     -0.046774309   -0.000000000   -0.000000000   -0.000000000   -0.000000000
   43  SC 1 XZ     -0.000000000   -0.091506783   -0.000000000   -0.000000000   -0.000000000
   44  SC 1 YZ     -0.000000000   -0.000000000   -0.091506813   -0.000000000   -0.000000000
   45  SC 1 XX     -0.000000000   -0.000000000   -0.000000000    0.708405691    2.180002347
   46  SC 1 YY     -0.000000000   -0.000000000   -0.000000000    0.708398924   -2.180003633
   47  SC 1 ZZ     -0.000000000   -0.000000000   -0.000000000   -1.416804615    0.000001286
   48  SC 1 XY      0.499463381   -0.000000000   -0.000000000   -0.000000000   -0.000000000
   49  SC 1 XZ     -0.000000000   -0.676787597   -0.000000000   -0.000000000   -0.000000000
   50  SC 1 YZ     -0.000000000   -0.000000000   -0.676787589   -0.000000000   -0.000000000
   51  SC 1 XX     -0.000000000   -0.000000000   -0.000000000   -1.062564756   -3.093755795
   52  SC 1 YY     -0.000000000   -0.000000000   -0.000000000   -1.062554971    3.093757758
   53  SC 1 ZZ     -0.000000000   -0.000000000   -0.000000000    2.125119727   -0.000001963
   54  SC 1 XY     -0.713723455   -0.000000000   -0.000000000   -0.000000000   -0.000000000
   55  SC 1 XZ     -0.000000000   -0.308511853   -0.000000000   -0.000000000   -0.000000000
   56  SC 1 YZ     -0.000000000   -0.000000000   -0.308511980   -0.000000000   -0.000000000
   57  SC 1 XX     -0.000000000   -0.000000000   -0.000000000    0.574285286    1.604218477
   58  SC 1 YY     -0.000000000   -0.000000000   -0.000000000    0.574279964   -1.604219590
   59  SC 1 ZZ     -0.000000000   -0.000000000   -0.000000000   -1.148565251    0.000001113
   60  SC 1 XY      1.348359171   -0.000000000   -0.000000000   -0.000000000   -0.000000000
   61  SC 1 XZ     -0.000000000    1.070345946   -0.000000000   -0.000000000   -0.000000000
   62  SC 1 YZ     -0.000000000   -0.000000000    1.070345915   -0.000000000   -0.000000000

                       26             27             28             29
                    0.000176705    0.000157853    0.000157853    0.000044934
                       AG             B3G            B2G            B1G 
    1  SC 1  S     -0.001714984   -0.000000000   -0.000000000   -0.000000000
    2  SC 1  S      0.007914448   -0.000000000   -0.000000000   -0.000000000
    3  SC 1  S     -0.327271743   -0.000000000   -0.000000000   -0.000000000
    4  SC 1  S     -0.023535453   -0.000000000   -0.000000000   -0.000000000
    5  SC 1  S      0.754076513   -0.000000000   -0.000000000   -0.000000000
    6  SC 1  S     -1.607469979   -0.000000000   -0.000000000   -0.000000000
    7  SC 1  S      1.025339076   -0.000000000   -0.000000000   -0.000000000
    8  SC 1  S     -0.062230100   -0.000000000   -0.000000000   -0.000000000
    9  SC 1  S     -0.831099312   -0.000000000   -0.000000000   -0.000000000
   10  SC 1  S      1.122176670   -0.000000000   -0.000000000   -0.000000000
   11  SC 1  S     -0.728713376   -0.000000000   -0.000000000   -0.000000000
   12  SC 1  X      0.000000000   -0.000000000   -0.000000000   -0.000000000
   13  SC 1  Y      0.000000000   -0.000000000   -0.000000000   -0.000000000
   14  SC 1  Z      0.000000000   -0.000000000   -0.000000000   -0.000000000
   15  SC 1  X      0.000000000   -0.000000000   -0.000000000   -0.000000000
   16  SC 1  Y      0.000000000   -0.000000000   -0.000000000   -0.000000000
   17  SC 1  Z      0.000000000   -0.000000000   -0.000000000   -0.000000000
   18  SC 1  X      0.000000000   -0.000000000   -0.000000000   -0.000000000
   19  SC 1  Y      0.000000000   -0.000000000   -0.000000000   -0.000000000
   20  SC 1  Z      0.000000000   -0.000000000   -0.000000000   -0.000000000
   21  SC 1  X      0.000000000   -0.000000000   -0.000000000   -0.000000000
   22  SC 1  Y      0.000000000   -0.000000000   -0.000000000   -0.000000000
   23  SC 1  Z      0.000000000   -0.000000000   -0.000000000   -0.000000000
   24  SC 1  X      0.000000000   -0.000000000   -0.000000000   -0.000000000
   25  SC 1  Y      0.000000000   -0.000000000   -0.000000000   -0.000000000
   26  SC 1  Z      0.000000000   -0.000000000   -0.000000000   -0.000000000
   27  SC 1  X      0.000000000   -0.000000000   -0.000000000   -0.000000000
   28  SC 1  Y      0.000000000   -0.000000000   -0.000000000   -0.000000000
   29  SC 1  Z      0.000000000   -0.000000000   -0.000000000   -0.000000000
   30  SC 1  X      0.000000000   -0.000000000   -0.000000000   -0.000000000
   31  SC 1  Y      0.000000000   -0.000000000   -0.000000000   -0.000000000
   32  SC 1  Z      0.000000000   -0.000000000   -0.000000000   -0.000000000
   33  SC 1 XX      0.034302104   -0.000000000   -0.000000000   -0.000000000
   34  SC 1 YY      0.034302175   -0.000000000   -0.000000000   -0.000000000
   35  SC 1 ZZ     -0.068604280   -0.000000000   -0.000000000   -0.000000000
   36  SC 1 XY      0.000000000   -0.000000000   -0.000000000   -0.004607471
   37  SC 1 XZ      0.000000000   -0.000000000   -0.086308696   -0.000000000
   38  SC 1 YZ      0.000000000   -0.086308699   -0.000000000   -0.000000000
   39  SC 1 XX     -0.193919751   -0.000000000   -0.000000000   -0.000000000
   40  SC 1 YY     -0.193920120   -0.000000000   -0.000000000   -0.000000000
   41  SC 1 ZZ      0.387839871   -0.000000000   -0.000000000   -0.000000000
   42  SC 1 XY      0.000000000   -0.000000000   -0.000000000    0.308247763
   43  SC 1 XZ      0.000000000   -0.000000000    0.484315861   -0.000000000
   44  SC 1 YZ      0.000000000    0.484315847   -0.000000000   -0.000000000
   45  SC 1 XX      0.980117505   -0.000000000   -0.000000000   -0.000000000
   46  SC 1 YY      0.980119518   -0.000000000   -0.000000000   -0.000000000
   47  SC 1 ZZ     -1.960237022   -0.000000000   -0.000000000   -0.000000000
   48  SC 1 XY      0.000000000   -0.000000000   -0.000000000   -0.232331610
   49  SC 1 XZ      0.000000000   -0.000000000   -2.453292453   -0.000000000
   50  SC 1 YZ      0.000000000   -2.453292532   -0.000000000   -0.000000000
   51  SC 1 XX     -1.477577741   -0.000000000   -0.000000000   -0.000000000
   52  SC 1 YY     -1.477580637   -0.000000000   -0.000000000   -0.000000000
   53  SC 1 ZZ      2.955158378   -0.000000000   -0.000000000   -0.000000000
   54  SC 1 XY      0.000000000   -0.000000000   -0.000000000    1.720571123
   55  SC 1 XZ      0.000000000   -0.000000000    3.641750887   -0.000000000
   56  SC 1 YZ      0.000000000    3.641750872   -0.000000000   -0.000000000
   57  SC 1 XX      0.795089965   -0.000000000   -0.000000000   -0.000000000
   58  SC 1 YY      0.795091529   -0.000000000   -0.000000000   -0.000000000
   59  SC 1 ZZ     -1.590181494   -0.000000000   -0.000000000   -0.000000000
   60  SC 1 XY      0.000000000   -0.000000000   -0.000000000   -1.307232036
   61  SC 1 XZ      0.000000000   -0.000000000   -1.936440955   -0.000000000
   62  SC 1 YZ      0.000000000   -1.936440995   -0.000000000   -0.000000000
 ...... END OF DENSITY MATRIX CALCULATION ...... 
 STEP CPU TIME =     0.00 TOTAL CPU TIME =       22.1 (    0.4 MIN)
 TOTAL WALL CLOCK TIME=       22.1 SECONDS, CPU UTILIZATION IS  99.86%

     --------------------------------------------------------
     GUGA  CI PROPERTIES...FOR THE WAVEFUNCTION OF STATE    1
               USING THE EXPECTATION VALUE DENSITY
     --------------------------------------------------------

          -----------------
          ENERGY COMPONENTS
          -----------------

         WAVEFUNCTION NORMALIZATION =       1.0000000000

                ONE ELECTRON ENERGY =   -1040.5478453520
                TWO ELECTRON ENERGY =     280.7589748436
           NUCLEAR REPULSION ENERGY =       0.0000000000
                                      ------------------
                       TOTAL ENERGY =    -759.7888705084

 ELECTRON-ELECTRON POTENTIAL ENERGY =     280.7589748436
  NUCLEUS-ELECTRON POTENTIAL ENERGY =   -1800.6289825971
   NUCLEUS-NUCLEUS POTENTIAL ENERGY =       0.0000000000
                                      ------------------
             TOTAL POTENTIAL ENERGY =   -1519.8700077535
               TOTAL KINETIC ENERGY =     760.0811372451
                 VIRIAL RATIO (V/T) =       1.9996154796

          ---------------------------------------
          MULLIKEN AND LOWDIN POPULATION ANALYSES
          ---------------------------------------

               ----- POPULATIONS IN EACH AO -----
                             MULLIKEN      LOWDIN
              1  SC 1  S      1.87597     1.35610
              2  SC 1  S     -0.00255     0.32211
              3  SC 1  S      1.94032     0.59380
              4  SC 1  S      0.01775     0.22331
              5  SC 1  S      0.02503     0.18685
              6  SC 1  S      0.98463     0.22093
              7  SC 1  S      1.24532     0.30309
              8  SC 1  S      0.00907     0.37660
              9  SC 1  S      0.96847     0.70640
             10  SC 1  S      0.65307     0.64532
             11  SC 1  S      0.19905     0.23820
             12  SC 1  X      0.00094     0.05311
             13  SC 1  Y      0.00094     0.05311
             14  SC 1  Z      0.00094     0.05303
             15  SC 1  X      0.63626     0.62949
             16  SC 1  Y      0.63626     0.62949
             17  SC 1  Z      0.63579     0.62862
             18  SC 1  X      0.68788     0.62880
             19  SC 1  Y      0.68788     0.62880
             20  SC 1  Z      0.68858     0.62880
             21  SC 1  X      1.50944     1.00132
             22  SC 1  Y      1.50944     1.00132
             23  SC 1  Z      1.49752     0.99021
             24  SC 1  X      0.57867     0.68775
             25  SC 1  Y      0.57867     0.68775
             26  SC 1  Z      0.57873     0.68750
             27  SC 1  X      0.55543     0.82942
             28  SC 1  Y      0.55543     0.82942
             29  SC 1  Z      0.53826     0.81986
             30  SC 1  X      0.05093     0.18967
             31  SC 1  Y      0.05093     0.18967
             32  SC 1  Z      0.06112     0.19293
             33  SC 1 XX      0.00012     0.32526
             34  SC 1 YY      0.00392     0.32526
             35  SC 1 ZZ      0.00000     0.32105
             36  SC 1 XY      0.00007     0.00000
             37  SC 1 XZ      0.00007     0.00011
             38  SC 1 YZ      0.00000     0.00011
             39  SC 1 XX      0.00129     0.16114
             40  SC 1 YY      0.09386     0.16114
             41  SC 1 ZZ     -0.00002     0.10414
             42  SC 1 XY      0.00071     0.00005
             43  SC 1 XZ      0.00071     0.00154
             44  SC 1 YZ      0.00000     0.00154
             45  SC 1 XX      0.00900     0.31643
             46  SC 1 YY      0.32366     0.31643
             47  SC 1 ZZ      0.00057     0.17400
             48  SC 1 XY      0.00537     0.00012
             49  SC 1 XZ      0.00537     0.00351
             50  SC 1 YZ      0.00000     0.00351
             51  SC 1 XX      0.00176     0.31487
             52  SC 1 YY      0.36932     0.31487
             53  SC 1 ZZ     -0.00128     0.16040
             54  SC 1 XY      0.00070     0.00023
             55  SC 1 XZ      0.00070     0.00337
             56  SC 1 YZ      0.00000     0.00337
             57  SC 1 XX      0.01068     0.27424
             58  SC 1 YY      0.19937     0.27424
             59  SC 1 ZZ      0.00323     0.21296
             60  SC 1 XY      0.00732     0.00210
             61  SC 1 XZ      0.00732     0.00563
             62  SC 1 YZ      0.00000     0.00563

          ----- MULLIKEN ATOMIC OVERLAP POPULATIONS -----
          (OFF-DIAGONAL ELEMENTS NEED TO BE MULTIPLIED BY 2)

             1

    1   21.0000000

          TOTAL MULLIKEN AND LOWDIN ATOMIC POPULATIONS
       ATOM         MULL.POP.    CHARGE          LOW.POP.     CHARGE
    1 SC           21.000000    0.000000        21.000000    0.000000

          MULLIKEN SPHERICAL HARMONIC POPULATIONS
       ATOM           S       P       D      F      G      H      I    TOTAL
    1 SC            7.92   12.04    1.04   0.00   0.00   0.00   0.00   21.00

          ---------------------
          ELECTROSTATIC MOMENTS
          ---------------------

 POINT   1           X           Y           Z (BOHR)    CHARGE
                 0.000000    0.000000    0.000000       -0.00 (A.U.)
         DX          DY          DZ         /D/  (DEBYE)
     0.000000    0.000000    0.000000    0.000000
 ...... END OF PROPERTY EVALUATION ......
 STEP CPU TIME =     0.02 TOTAL CPU TIME =       22.1 (    0.4 MIN)
 TOTAL WALL CLOCK TIME=       22.1 SECONDS, CPU UTILIZATION IS  99.91%
              5574949  WORDS OF DYNAMIC MEMORY USED
 EXECUTION OF GAMESS TERMINATED NORMALLY Thu Mar 16 11:04:48 2017
 DDI: 263016 bytes (0.3 MB / 0 MWords) used by master data server.

 ----------------------------------------
 CPU timing information for all processes
 ========================================
 0: 21.962509 + 0.132048 = 22.094557
 ----------------------------------------
 ddikick.x: exited gracefully.
----- accounting info -----
Files used on the master node qmc4 were:
-rw-r--r-- 1 cyrus cyrus   30467 Mar 16 11:04 ./ci_oh_orbs_ras5-21-3.dat
-rw-r----- 1 cyrus cyrus   59664 Mar 16 11:04 ./ci_oh_orbs_ras5-21-3.F05
-rw-r--r-- 1 cyrus cyrus 3420304 Mar 16 11:04 ./ci_oh_orbs_ras5-21-3.F08
-rw-r--r-- 1 cyrus cyrus  181872 Mar 16 11:04 ./ci_oh_orbs_ras5-21-3.F09
-rw-r--r-- 1 cyrus cyrus 1014320 Mar 16 11:04 ./ci_oh_orbs_ras5-21-3.F10
-rw-r--r-- 1 cyrus cyrus  326816 Mar 16 11:04 ./ci_oh_orbs_ras5-21-3.F11
-rw-r--r-- 1 cyrus cyrus   25368 Mar 16 11:04 ./ci_oh_orbs_ras5-21-3.F12
-rw-r--r-- 1 cyrus cyrus  400008 Mar 16 11:04 ./ci_oh_orbs_ras5-21-3.F14
-rw-r--r-- 1 cyrus cyrus  185400 Mar 16 11:04 ./ci_oh_orbs_ras5-21-3.F15
-rw-r--r-- 1 cyrus cyrus 3200456 Mar 16 11:04 ./ci_oh_orbs_ras5-21-3.F16
-rw-r----- 1 cyrus cyrus   59664 Mar 16 11:04 ./ci_oh_orbs_ras5-21-3.inp
-rw-r--r-- 1 cyrus cyrus 1023203 Mar 16 11:04 ./ci_oh_orbs_ras5-21-3.out
Thu Mar 16 11:04:51 EDT 2017
0.126u 0.066s 0:25.36 0.7%	0+0k 32+144io 0pf+0w
