----- GAMESS execution script -----
This job is running on host nanolab.cnf.cornell.edu
under operating system Linux at Sat Jan 27 10:44:18 EST 2007
Available scratch disk space (Kbyte units) at beginning of the job is
Filesystem           1K-blocks      Used Available Use% Mounted on
/dev/sda3             54285308   6440508  45087244  13% /

 Distributed Data Interface kickoff program.
 Initiating 1 compute processes on 1 nodes to run the following command:
 /home/toulouse/programs/gamess_modified/gamess.00.x n_sto14g_cvb1_hf 

          ******************************************************
          *         GAMESS VERSION = 22 NOV 2004 (R1)          *
          *             FROM IOWA STATE UNIVERSITY             *
          * M.W.SCHMIDT, K.K.BALDRIDGE, J.A.BOATZ, S.T.ELBERT, *
          *   M.S.GORDON, J.H.JENSEN, S.KOSEKI, N.MATSUNAGA,   *
          *          K.A.NGUYEN, S.J.SU, T.L.WINDUS,           *
          *       TOGETHER WITH M.DUPUIS, J.A.MONTGOMERY       *
          *         J.COMPUT.CHEM.  14, 1347-1363(1993)        *
          ******************* PC-UNIX VERSION ******************

     SINCE 1993, STUDENTS AND POSTDOCS WORKING AT IOWA STATE UNIVERSITY
     AND ALSO IN THEIR VARIOUS JOBS AFTER LEAVING ISU HAVE MADE IMPORTANT
     CONTRIBUTIONS TO THE CODE:
     IVANA ADAMOVIC, CHRISTINE AIKENS, ROB BELL, PRADIPTA BANDYOPADHYAY,
     BRETT BODE, GALINA CHABAN, WEI CHEN, CHEOL HO CHOI, PAUL DAY,
     TIM DUDLEY, DMITRI FEDOROV, GRAHAM FLETCHER, MARK FREITAG,
     KURT GLAESEMANN, GRANT MERRILL, HEATHER NETZLOFF, RYAN OLSON,
     MIKE PAK, JIM SHOEMAKER, TETSUYA TAKETSUGU, SIMON WEBB.

     ADDITIONAL CODE HAS BEEN PROVIDED BY COLLABORATORS IN OTHER GROUPS:
     IOWA STATE UNIVERSITY: JOE IVANIC, KLAUS RUEDENBERG
     UNIVERSITY OF TOKYO: KIMIHIKO HIRAO, HARUYUKI NAKANO, TAKAHITO
          NAKAJIMA, TAKAO TSUNEDA, MUNEAKI KAMIYA, SUSUMU YANAGISAWA,
          KIYOSHI YAGI
     ODENSE UNIVERSITY: FRANK JENSEN
     UNIVERSITY OF IOWA: VISVALDAS KAIRYS, HUI LI
     NATIONAL INST. OF STANDARDS AND TECHNOLOGY: WALT STEVENS, DAVID GARMER
     UNIVERSITY OF PISA: BENEDETTA MENNUCCI, JACOPO TOMASI
     UNIVERSITY OF MEMPHIS: HENRY KURTZ, PRAKASHAN KORAMBATH
     UNIVERSITY OF ALBERTA: MARIUSZ KLOBUKOWSKI
     UNIVERSITY OF NEW ENGLAND: MARK SPACKMAN
     MIE UNIVERSITY: HIROAKI UMEDA
     MICHIGAN STATE UNIVERSITY: KAROL KOWALSKI, PIOTR PIECUCH
     UNIVERSITY OF SILESIA: MONIKA MUSIAL, STANISLAW KUCHARSKI
     FACULTES UNIVERSITAIRES NOTRE-DAME DE LA PAIX:
          OLIVIER QUINET, BENOIT CHAMPAGNE
     UNIVERSITY OF CALIFORNIA - SANTA BARBARA: BERNARD KIRTMAN
     INSTITUTE FOR MOLECULAR SCIENCE: KAZUYA ISHIMURA AND SHIGERU NAGASE

 EXECUTION OF GAMESS BEGUN Sat Jan 27 10:44:18 2007

            ECHO OF THE FIRST FEW INPUT CARDS -
 INPUT CARD> $CONTRL                                                                        
 INPUT CARD>   EXETYP=RUN                                                                   
 INPUT CARD>   COORD=UNIQUE UNITS=BOHR                                                      
 INPUT CARD>   RUNTYP=ENERGY SCFTYP=ROHF MAXIT=200                                          
 INPUT CARD>   MULT=4                                                                       
 INPUT CARD> $END                                                                           
 INPUT CARD>                                                                                
 INPUT CARD> $GUESS                                                                         
 INPUT CARD>  GUESS=HUCKEL                                                                  
 INPUT CARD>  PRTMO=.TRUE.                                                                  
 INPUT CARD> $END                                                                           
 INPUT CARD>                                                                                
 INPUT CARD> $DATA                                                                          
 INPUT CARD>- N sto14g_cvb1 hf                                                              
 INPUT CARD>DNH 2                                                                           
 INPUT CARD>                                                                                
 INPUT CARD>N 7.0      0.0        0.0        0.0                                            
 INPUT CARD>1S     14  9.004324                                                             
 INPUT CARD>1S     14  5.948789                                                             
 INPUT CARD>1S     14  11.72241                                                             
 INPUT CARD>2S     14  4.435341                                                             
 INPUT CARD>2S     14  2.505013                                                             
 INPUT CARD>2S     14  1.576870                                                             
 INPUT CARD>2P     14  4.204612                                                             
 INPUT CARD>2P     14  2.127115                                                             
 INPUT CARD>2P     14  1.271558                                                             
 INPUT CARD>2P     14  9.433241                                                             
 INPUT CARD>3D     14  2.379805                                                             
 INPUT CARD>                                                                                
 INPUT CARD> $END                                                                           

 ..... DONE SETTING UP THE RUN .....
    1000000 WORDS OF MEMORY AVAILABLE


     RUN TITLE
     ---------
 - N sto14g_cvb1 hf                                                              

 THE POINT GROUP OF THE MOLECULE IS DNH     
 THE ORDER OF THE PRINCIPAL AXIS IS     2

 ATOM      ATOMIC                      COORDINATES (BOHR)
           CHARGE         X                   Y                   Z
 N           7.0     0.0000000000        0.0000000000        0.0000000000

          INTERNUCLEAR DISTANCES (ANGS.)
          ------------------------------

                    N         

  1  N               0.0000000    

  * ... LESS THAN  3.000

 ATOMS: STO-NG TYPE BASIS SET

     ATOMIC BASIS SET
     ----------------
 THE CONTRACTED PRIMITIVE FUNCTIONS HAVE BEEN UNNORMALIZED
 THE CONTRACTED BASIS FUNCTIONS ARE NOW NORMALIZED TO UNITY

 SHELL TYPE PRIMITIVE    SLATER EXPONENT     EXPONENT          CONTRACTION COEFFICIENTS

 N         

   1   1S   1             9.0043240        174008.4676367      0.000032071854
   1   1S   2                               31961.0505639      0.000180868724
   1   1S   3                                8955.6223996      0.000715732871
   1   1S   4                                3086.6056061      0.002327137410
   1   1S   5                                1211.0507541      0.006621033466
   1   1S   6                                 520.4803348      0.016968581946
   1   1S   7                                 239.5622713      0.039565969540
   1   1S   8                                 116.3788770      0.083424650726
   1   1S   9                                  59.0697189      0.155102805406
   1   1S  10                                  31.0883910      0.241346852708
   1   1S  11                                  16.8589704      0.286294283519
   1   1S  12                                   9.3582030      0.220624522944
   1   1S  13                                   5.2622415      0.083307088014
   1   1S  14                                   2.9157824      0.008488240712

   2   1S  15             5.9487890         75949.5640194      0.000032071854
   2   1S  16                               13950.0559306      0.000180868724
   2   1S  17                                3908.8650455      0.000715732871
   2   1S  18                                1347.2123125      0.002327137410
   2   1S  19                                 528.5879362      0.006621033466
   2   1S  20                                 227.1743154      0.016968581946
   2   1S  21                                 104.5618659      0.039565969540
   2   1S  22                                  50.7959474      0.083424650726
   2   1S  23                                  25.7821901      0.155102805406
   2   1S  24                                  13.5691658      0.241346852708
   2   1S  25                                   7.3584434      0.286294283519
   2   1S  26                                   4.0845796      0.220624522944
   2   1S  27                                   2.2968132      0.083307088014
   2   1S  28                                   1.2726530      0.008488240712

   3   1S  29            11.7224100        294918.4680412      0.000032071854
   3   1S  30                               54169.2263447      0.000180868724
   3   1S  31                               15178.4477750      0.000715732871
   3   1S  32                                5231.3373548      0.002327137410
   3   1S  33                                2052.5508786      0.006621033466
   3   1S  34                                 882.1367436      0.016968581946
   3   1S  35                                 406.0224139      0.039565969540
   3   1S  36                                 197.2448846      0.083424650726
   3   1S  37                                 100.1143867      0.155102805406
   3   1S  38                                  52.6901982      0.241346852708
   3   1S  39                                  28.5734470      0.286294283519
   3   1S  40                                  15.8607619      0.220624522944
   3   1S  41                                   8.9187166      0.083307088014
   3   1S  42                                   4.9418175      0.008488240712

   4   2S  43             4.4353410         57555.6909830     -0.000012553657
   4   2S  44                               10586.3659539     -0.000070674213
   4   2S  45                                2967.9720407     -0.000279006252
   4   2S  46                                1023.1143555     -0.000902551677
   4   2S  47                                 401.2824073     -0.002539637688
   4   2S  48                                 172.1656363     -0.006358497668
   4   2S  49                                  78.8676406     -0.014091245591
   4   2S  50                                  37.9429956     -0.026247761699
   4   2S  51                                  18.9782189     -0.033835499906
   4   2S  52                                   5.2863704      0.136316565351
   4   2S  53                                   2.9448995      0.346615099999
   4   2S  54                                   1.6922207      0.394391440628
   4   2S  55                                   0.9917276      0.179466944874
   4   2S  56                                   0.5759943      0.019147909853

   5   2S  57             2.5050130         18359.2193240     -0.000012553657
   5   2S  58                                3376.8583275     -0.000070674213
   5   2S  59                                 946.7291368     -0.000279006252
   5   2S  60                                 326.3548839     -0.000902551677
   5   2S  61                                 128.0017945     -0.002539637688
   5   2S  62                                  54.9177088     -0.006358497668
   5   2S  63                                  25.1573439     -0.014091245591
   5   2S  64                                  12.1031260     -0.026247761699
   5   2S  65                                   6.0537069     -0.033835499906
   5   2S  66                                   1.6862561      0.136316565351
   5   2S  67                                   0.9393694      0.346615099999
   5   2S  68                                   0.5397876      0.394391440628
   5   2S  69                                   0.3163431      0.179466944874
   5   2S  70                                   0.1837317      0.019147909853

   6   2S  71             1.5768700          7274.8831762     -0.000012553657
   6   2S  72                                1338.0879329     -0.000070674213
   6   2S  73                                 375.1436130     -0.000279006252
   6   2S  74                                 129.3188785     -0.000902551677
   6   2S  75                                  50.7210075     -0.002539637688
   6   2S  76                                  21.7612693     -0.006358497668
   6   2S  77                                   9.9686558     -0.014091245591
   6   2S  78                                   4.7958917     -0.026247761699
   6   2S  79                                   2.3987954     -0.033835499906
   6   2S  80                                   0.6681829      0.136316565351
   6   2S  81                                   0.3722273      0.346615099999
   6   2S  82                                   0.2138921      0.394391440628
   6   2S  83                                   0.1253517      0.179466944874
   6   2S  84                                   0.0728041      0.019147909853

   7   2P  85             4.2046120          4041.2059609      0.000013589949
   7   2P  86                                1055.8835276      0.000098737858
   7   2P  87                                 379.3155079      0.000479801845
   7   2P  88                                 159.9008637      0.001857311798
   7   2P  89                                  74.5939360      0.006124920625
   7   2P  90                                  37.3849508      0.017694065197
   7   2P  91                                  19.7796784      0.045024238144
   7   2P  92                                  10.9214987      0.099589645015
   7   2P  93                                   6.2422476      0.185117675279
   7   2P  94                                   3.6698096      0.272215006419
   7   2P  95                                   2.2066738      0.287038979472
   7   2P  96                                   1.3485004      0.185359431716
   7   2P  97                                   0.8289261      0.055951602281
   7   2P  98                                   0.4992483      0.004428704232

   8   2P  99             2.1271150          1034.2870197      0.000013589949
   8   2P 100                                 270.2378046      0.000098737858
   8   2P 101                                  97.0802058      0.000479801845
   8   2P 102                                  40.9242660      0.001857311798
   8   2P 103                                  19.0912170      0.006124920625
   8   2P 104                                   9.5681264      0.017694065197
   8   2P 105                                   5.0623167      0.045024238144
   8   2P 106                                   2.7951964      0.099589645015
   8   2P 107                                   1.5976111      0.185117675279
   8   2P 108                                   0.9392336      0.272215006419
   8   2P 109                                   0.5647656      0.287038979472
   8   2P 110                                   0.3451288      0.185359431716
   8   2P 111                                   0.2121514      0.055951602281
   8   2P 112                                   0.1277752      0.004428704232

   9   2P 113             1.2715580           369.5995920      0.000013589949
   9   2P 114                                  96.5687284      0.000098737858
   9   2P 115                                  34.6913417      0.000479801845
   9   2P 116                                  14.6241727      0.001857311798
   9   2P 117                                   6.8221933      0.006124920625
   9   2P 118                                   3.4191434      0.017694065197
   9   2P 119                                   1.8090048      0.045024238144
   9   2P 120                                   0.9988557      0.099589645015
   9   2P 121                                   0.5709019      0.185117675279
   9   2P 122                                   0.3356325      0.272215006419
   9   2P 123                                   0.2018174      0.287038979472
   9   2P 124                                   0.1233308      0.185359431716
   9   2P 125                                   0.0758117      0.055951602281
   9   2P 126                                   0.0456601      0.004428704232

  10   2P 127             9.4332410         20341.4072055      0.000013589949
  10   2P 128                                5314.7889527      0.000098737858
  10   2P 129                                1909.2843277      0.000479801845
  10   2P 130                                 804.8608789      0.001857311798
  10   2P 131                                 375.4685216      0.006124920625
  10   2P 132                                 188.1771220      0.017694065197
  10   2P 133                                  99.5609965      0.045024238144
  10   2P 134                                  54.9733556      0.099589645015
  10   2P 135                                  31.4203488      0.185117675279
  10   2P 136                                  18.4719839      0.272215006419
  10   2P 137                                  11.1072908      0.287038979472
  10   2P 138                                   6.7876756      0.185359431716
  10   2P 139                                   4.1723989      0.055951602281
  10   2P 140                                   2.5129657      0.004428704232

  11   3D 141             2.3798050           317.9739222      0.000007211834
  11   3D 142                                 102.3927402      0.000064571730
  11   3D 143                                  42.7819062      0.000370632597
  11   3D 144                                  20.4102119      0.001645715217
  11   3D 145                                  10.5965121      0.006063213603
  11   3D 146                                   5.8420446      0.019041368835
  11   3D 147                                   3.3705501      0.051097955816
  11   3D 148                                   2.0154026      0.115162924520
  11   3D 149                                   1.2402339      0.209894375084
  11   3D 150                                   0.7810721      0.290459604554
  11   3D 151                                   0.5007960      0.276700110656
  11   3D 152                                   0.3249025      0.155660868486
  11   3D 153                                   0.2111809      0.039819181169
  11   3D 154                                   0.1341367      0.002624443047

 TOTAL NUMBER OF BASIS SET SHELLS             =   11
 NUMBER OF CARTESIAN GAUSSIAN BASIS FUNCTIONS =   24
 NUMBER OF ELECTRONS                          =    7
 CHARGE OF MOLECULE                           =    0
 SPIN MULTIPLICITY                            =    4
 NUMBER OF OCCUPIED ORBITALS (ALPHA)          =    5
 NUMBER OF OCCUPIED ORBITALS (BETA )          =    2
 TOTAL NUMBER OF ATOMS                        =    1
 THE NUCLEAR REPULSION ENERGY IS        0.0000000000

 THIS MOLECULE IS RECOGNIZED AS BEING LINEAR.

     $CONTRL OPTIONS
     ---------------
 SCFTYP=ROHF         RUNTYP=ENERGY       EXETYP=RUN     
 MPLEVL=       0     CITYP =NONE         CCTYP =NONE    
 MULT  =       4     ICHARG=       0     NZVAR =       0     COORD =UNIQUE  
 ECP   =NONE         RELWFN=NONE         LOCAL =NONE         NUMGRD=       F
 ISPHER=      -1     NOSYM =       0     MAXIT =     200     UNITS =BOHR    
 PLTORB=       F     MOLPLT=       F     AIMPAC=       F     FRIEND=        
 NPRINT=       7     IREST =       0     GEOM  =INPUT   
 NORMF =       0     NORMP =       0     ITOL  =      20     ICUT  =       9
 INTTYP=BEST         GRDTYP=BEST         QMTTOL= 1.0E-06

     $SYSTEM OPTIONS
     ---------------
  REPLICATED MEMORY=     1000000 WORDS (ON EVERY NODE).
 DISTRIBUTED MEMDDI=           0 MILLION WORDS IN AGGREGATE,
 MEMDDI DISTRIBUTED OVER   1 PROCESSORS IS           0 WORDS/PROCESSOR.
 TOTAL MEMORY REQUESTED ON EACH PROCESSOR=     1000000 WORDS.
 TIMLIM=      525600.00 MINUTES, OR   365.00 DAYS.
 PARALL= F  BALTYP=  NXTVAL  KDIAG=    0  COREFL= F

          ----------------
          PROPERTIES INPUT
          ----------------

     MOMENTS            FIELD           POTENTIAL          DENSITY
 IEMOM =       1   IEFLD =       0   IEPOT =       0   IEDEN =       0
 WHERE =COMASS     WHERE =NUCLEI     WHERE =NUCLEI     WHERE =NUCLEI  
 OUTPUT=BOTH       OUTPUT=BOTH       OUTPUT=BOTH       OUTPUT=BOTH    
 IEMINT=       0   IEFINT=       0                     IEDINT=       0
                                                       MORB  =       0
          EXTRAPOLATION IN EFFECT
          SOSCF IN EFFECT

     -------------------------------
     INTEGRAL TRANSFORMATION OPTIONS
     -------------------------------
     NWORD  =       0     CUTOFF = 1.0E-09
     MPTRAN =       0     DIRTRF =       F
     AOINTS =DUP     

          ----------------------
          INTEGRAL INPUT OPTIONS
          ----------------------
 NOPK  =       1 NORDER=       0 SCHWRZ=       F

     ------------------------------------------
     THE POINT GROUP IS DNH, NAXIS= 2, ORDER= 8
     ------------------------------------------

     DIMENSIONS OF THE SYMMETRY SUBSPACES ARE
 AG  =    9     AU  =    0     B3U =    4     B3G =    1     B1G =    1
 B1U =    4     B2U =    4     B2G =    1

 ..... DONE SETTING UP THE RUN .....
 STEP CPU TIME =     0.03 TOTAL CPU TIME =        0.0 (    0.0 MIN)
 TOTAL WALL CLOCK TIME=        0.0 SECONDS, CPU UTILIZATION IS 100.00%

          ********************
          1 ELECTRON INTEGRALS
          ********************
 ...... END OF ONE-ELECTRON INTEGRALS ......
 STEP CPU TIME =     0.01 TOTAL CPU TIME =        0.0 (    0.0 MIN)
 TOTAL WALL CLOCK TIME=        0.0 SECONDS, CPU UTILIZATION IS 100.00%

          -------------
          GUESS OPTIONS
          -------------
          GUESS =HUCKEL            NORB  =       0          NORDER=       0
          MIX   =       F          PRTMO =       T          PUNMO =       F
          TOLZ  = 1.0E-08          TOLE  = 1.0E-05
          SYMDEN=       F          PURIFY=       F

 INITIAL GUESS ORBITALS GENERATED BY HUCKEL   ROUTINE.
 HUCKEL GUESS REQUIRES      5239 WORDS.
 EIGENVALUES ARE DIAGONAL OF 1E- H IN MO BASIS

 SYMMETRIES FOR INITIAL GUESS ORBITALS FOLLOW.  ALPHA SET(S).
     5 ORBITALS ARE OCCUPIED (    1 CORE ORBITALS).
     2=AG       3=B3U      4=B2U      5=B1U      6=AG       7=AG       8=AG  
     9=AG      10=AG      11=AG      12=AG      13=B3U     14=B3U     15=B3U 

                              ----------------------
                              INITIAL GUESS ORBITALS
                              ----------------------

                              ----------------------
                              INITIAL GUESS ORBITALS
                              ----------------------

                              ASSIGNED OCCUPANCIES

                  1.000000   1.000000   1.000000   1.000000   1.000000
                  0.000000   0.000000   0.000000   0.000000   0.000000
                  0.000000   0.000000   0.000000   0.000000   0.000000
                  0.000000   0.000000   0.000000   0.000000   0.000000
                  0.000000   0.000000   0.000000   0.000000

                        1              2              3              4              5
                  -23.115266773   -6.686846728   -4.941440236   -4.941440236   -4.941440236
                       AG             AG             B3U            B2U            B1U 
    1  N  1  S     -0.462227656   -0.139127611    0.000000000    0.000000000    0.000000000
    2  N  1  S      1.387165288    0.114165769    0.000000000    0.000000000    0.000000000
    3  N  1  S      0.268993004    0.088782651    0.000000000    0.000000000    0.000000000
    4  N  1  S     -0.242898841   -0.094689379    0.000000000    0.000000000    0.000000000
    5  N  1  S     -0.094665717    0.618694192    0.000000000    0.000000000    0.000000000
    6  N  1  S     -0.139880914    0.459134235    0.000000000    0.000000000    0.000000000
    7  N  1  X      0.000000000    0.000000000    0.060211780    0.000000000    0.000000000
    8  N  1  Y      0.000000000    0.000000000    0.000000000    0.060211780    0.000000000
    9  N  1  Z      0.000000000    0.000000000    0.000000000    0.000000000    0.060211780
   10  N  1  X      0.000000000    0.000000000    0.663132630    0.000000000    0.000000000
   11  N  1  Y      0.000000000    0.000000000    0.000000000    0.663132630    0.000000000
   12  N  1  Z      0.000000000    0.000000000    0.000000000    0.000000000    0.663132630
   13  N  1  X      0.000000000    0.000000000    0.326523275    0.000000000    0.000000000
   14  N  1  Y      0.000000000    0.000000000    0.000000000    0.326523275    0.000000000
   15  N  1  Z      0.000000000    0.000000000    0.000000000    0.000000000    0.326523275
   16  N  1  X      0.000000000    0.000000000    0.010043899    0.000000000    0.000000000
   17  N  1  Y      0.000000000    0.000000000    0.000000000    0.010043899    0.000000000
   18  N  1  Z      0.000000000    0.000000000    0.000000000    0.000000000    0.010043899
   19  N  1 XX      0.000000000    0.000000000    0.000000000    0.000000000    0.000000000
   20  N  1 YY      0.000000000    0.000000000    0.000000000    0.000000000    0.000000000
   21  N  1 ZZ      0.000000000    0.000000000    0.000000000    0.000000000    0.000000000
   22  N  1 XY      0.000000000    0.000000000    0.000000000    0.000000000    0.000000000
   23  N  1 XZ      0.000000000    0.000000000    0.000000000    0.000000000    0.000000000
   24  N  1 YZ      0.000000000    0.000000000    0.000000000    0.000000000    0.000000000

                        6              7              8              9             10
                  113.884590365   44.115125907   30.912147644   28.349904909    3.739895451
                       AG             AG             AG             AG             AG  
    1  N  1  S     59.518330795    9.372915847   -1.540802491   -0.189124242   -0.299161925
    2  N  1  S    -45.605372144   -1.533245683   -2.713062936   -2.110384735    0.205594658
    3  N  1  S    -25.446981223   -6.888247262    3.023119559    1.962076381   -0.556767675
    4  N  1  S     26.833530164   -7.784845647    3.045428411    0.169797934    0.930088745
    5  N  1  S    -23.925293291   12.265395581   -2.387306352    2.185102614    0.318259222
    6  N  1  S     -9.391464700    9.547049470    4.825571743   -1.627442400   -0.340265668
    7  N  1  X      0.000000000    0.000000000    0.000000000    0.000000000    0.000000000
    8  N  1  Y      0.000000000    0.000000000    0.000000000    0.000000000    0.000000000
    9  N  1  Z      0.000000000    0.000000000    0.000000000    0.000000000    0.000000000
   10  N  1  X      0.000000000    0.000000000    0.000000000    0.000000000    0.000000000
   11  N  1  Y      0.000000000    0.000000000    0.000000000    0.000000000    0.000000000
   12  N  1  Z      0.000000000    0.000000000    0.000000000    0.000000000    0.000000000
   13  N  1  X      0.000000000    0.000000000    0.000000000    0.000000000    0.000000000
   14  N  1  Y      0.000000000    0.000000000    0.000000000    0.000000000    0.000000000
   15  N  1  Z      0.000000000    0.000000000    0.000000000    0.000000000    0.000000000
   16  N  1  X      0.000000000    0.000000000    0.000000000    0.000000000    0.000000000
   17  N  1  Y      0.000000000    0.000000000    0.000000000    0.000000000    0.000000000
   18  N  1  Z      0.000000000    0.000000000    0.000000000    0.000000000    0.000000000
   19  N  1 XX      9.496800834   -7.410350837   -1.707696632   -0.092934969   -0.264097733
   20  N  1 YY      9.496800834   -7.410350837   -1.707696632   -0.092934969   -0.264097733
   21  N  1 ZZ      9.496800834   -7.410350837   -1.707696632   -0.092934969   -0.264097733
   22  N  1 XY      0.000000000    0.000000000    0.000000000    0.000000000    0.000000000
   23  N  1 XZ      0.000000000    0.000000000    0.000000000    0.000000000    0.000000000
   24  N  1 YZ      0.000000000    0.000000000    0.000000000    0.000000000    0.000000000

                       11             12             13             14             15
                   -2.721142413   -2.721142413    7.939772423   11.815639750    5.384099718
                       AG             AG             B3U            B3U            B3U 
    1  N  1  S      0.000000000    0.000000000    0.000000000    0.000000000    0.000000000
    2  N  1  S      0.000000000    0.000000000    0.000000000    0.000000000    0.000000000
    3  N  1  S      0.000000000    0.000000000    0.000000000    0.000000000    0.000000000
    4  N  1  S      0.000000000    0.000000000    0.000000000    0.000000000    0.000000000
    5  N  1  S      0.000000000    0.000000000    0.000000000    0.000000000    0.000000000
    6  N  1  S      0.000000000    0.000000000    0.000000000    0.000000000    0.000000000
    7  N  1  X      0.000000000    0.000000000   -2.625596138    1.115974016    0.399652203
    8  N  1  Y      0.000000000    0.000000000    0.000000000    0.000000000    0.000000000
    9  N  1  Z      0.000000000    0.000000000    0.000000000    0.000000000    0.000000000
   10  N  1  X      0.000000000    0.000000000    3.691846953    0.449533543   -0.140853991
   11  N  1  Y      0.000000000    0.000000000    0.000000000    0.000000000    0.000000000
   12  N  1  Z      0.000000000    0.000000000    0.000000000    0.000000000    0.000000000
   13  N  1  X      0.000000000    0.000000000   -2.259940476   -1.031523019   -0.373141969
   14  N  1  Y      0.000000000    0.000000000    0.000000000    0.000000000    0.000000000
   15  N  1  Z      0.000000000    0.000000000    0.000000000    0.000000000    0.000000000
   16  N  1  X      0.000000000    0.000000000    1.010384395   -1.050849209    0.729448621
   17  N  1  Y      0.000000000    0.000000000    0.000000000    0.000000000    0.000000000
   18  N  1  Z      0.000000000    0.000000000    0.000000000    0.000000000    0.000000000
   19  N  1 XX     -0.857903955   -0.513810086    0.000000000    0.000000000    0.000000000
   20  N  1 YY      0.873924565   -0.486061576    0.000000000    0.000000000    0.000000000
   21  N  1 ZZ     -0.016020610    0.999871662    0.000000000    0.000000000    0.000000000
   22  N  1 XY      0.000000000    0.000000000    0.000000000    0.000000000    0.000000000
   23  N  1 XZ      0.000000000    0.000000000    0.000000000    0.000000000    0.000000000
   24  N  1 YZ      0.000000000    0.000000000    0.000000000    0.000000000    0.000000000

                       16             17             18             19             20
                   -2.721142413   -2.721142413    7.939772423   11.815639750    5.384099718
                       B3G            B1G            B1U            B1U            B1U 
    1  N  1  S      0.000000000    0.000000000    0.000000000    0.000000000    0.000000000
    2  N  1  S      0.000000000    0.000000000    0.000000000    0.000000000    0.000000000
    3  N  1  S      0.000000000    0.000000000    0.000000000    0.000000000    0.000000000
    4  N  1  S      0.000000000    0.000000000    0.000000000    0.000000000    0.000000000
    5  N  1  S      0.000000000    0.000000000    0.000000000    0.000000000    0.000000000
    6  N  1  S      0.000000000    0.000000000    0.000000000    0.000000000    0.000000000
    7  N  1  X      0.000000000    0.000000000    0.000000000    0.000000000    0.000000000
    8  N  1  Y      0.000000000    0.000000000    0.000000000    0.000000000    0.000000000
    9  N  1  Z      0.000000000    0.000000000   -2.625596138    1.115974016    0.399652203
   10  N  1  X      0.000000000    0.000000000    0.000000000    0.000000000    0.000000000
   11  N  1  Y      0.000000000    0.000000000    0.000000000    0.000000000    0.000000000
   12  N  1  Z      0.000000000    0.000000000    3.691846953    0.449533543   -0.140853991
   13  N  1  X      0.000000000    0.000000000    0.000000000    0.000000000    0.000000000
   14  N  1  Y      0.000000000    0.000000000    0.000000000    0.000000000    0.000000000
   15  N  1  Z      0.000000000    0.000000000   -2.259940476   -1.031523019   -0.373141969
   16  N  1  X      0.000000000    0.000000000    0.000000000    0.000000000    0.000000000
   17  N  1  Y      0.000000000    0.000000000    0.000000000    0.000000000    0.000000000
   18  N  1  Z      0.000000000    0.000000000    1.010384395   -1.050849209    0.729448621
   19  N  1 XX      0.000000000    0.000000000    0.000000000    0.000000000    0.000000000
   20  N  1 YY      0.000000000    0.000000000    0.000000000    0.000000000    0.000000000
   21  N  1 ZZ      0.000000000    0.000000000    0.000000000    0.000000000    0.000000000
   22  N  1 XY      0.000000000    1.000000000    0.000000000    0.000000000    0.000000000
   23  N  1 XZ      0.000000000    0.000000000    0.000000000    0.000000000    0.000000000
   24  N  1 YZ      1.000000000    0.000000000    0.000000000    0.000000000    0.000000000

                       21             22             23             24
                    7.939772423   11.815639750    5.384099718   -2.721142413
                       B2U            B2U            B2U            B2G 
    1  N  1  S      0.000000000    0.000000000    0.000000000    0.000000000
    2  N  1  S      0.000000000    0.000000000    0.000000000    0.000000000
    3  N  1  S      0.000000000    0.000000000    0.000000000    0.000000000
    4  N  1  S      0.000000000    0.000000000    0.000000000    0.000000000
    5  N  1  S      0.000000000    0.000000000    0.000000000    0.000000000
    6  N  1  S      0.000000000    0.000000000    0.000000000    0.000000000
    7  N  1  X      0.000000000    0.000000000    0.000000000    0.000000000
    8  N  1  Y     -2.625596138    1.115974016    0.399652203    0.000000000
    9  N  1  Z      0.000000000    0.000000000    0.000000000    0.000000000
   10  N  1  X      0.000000000    0.000000000    0.000000000    0.000000000
   11  N  1  Y      3.691846953    0.449533543   -0.140853991    0.000000000
   12  N  1  Z      0.000000000    0.000000000    0.000000000    0.000000000
   13  N  1  X      0.000000000    0.000000000    0.000000000    0.000000000
   14  N  1  Y     -2.259940476   -1.031523019   -0.373141969    0.000000000
   15  N  1  Z      0.000000000    0.000000000    0.000000000    0.000000000
   16  N  1  X      0.000000000    0.000000000    0.000000000    0.000000000
   17  N  1  Y      1.010384395   -1.050849209    0.729448621    0.000000000
   18  N  1  Z      0.000000000    0.000000000    0.000000000    0.000000000
   19  N  1 XX      0.000000000    0.000000000    0.000000000    0.000000000
   20  N  1 YY      0.000000000    0.000000000    0.000000000    0.000000000
   21  N  1 ZZ      0.000000000    0.000000000    0.000000000    0.000000000
   22  N  1 XY      0.000000000    0.000000000    0.000000000    0.000000000
   23  N  1 XZ      0.000000000    0.000000000    0.000000000    1.000000000
   24  N  1 YZ      0.000000000    0.000000000    0.000000000    0.000000000
 EIGENVALUES ARE DIAGONAL OF 1E- H IN MO BASIS

 SYMMETRIES FOR INITIAL GUESS ORBITALS FOLLOW.   BETA SET(S).
     2 ORBITALS ARE OCCUPIED (    1 CORE ORBITALS).
     2=AG       3=B3U      4=B2U      5=B1U      6=AG       7=AG       8=AG  
     9=AG      10=AG      11=AG      12=AG  

                              ----------------------
                              INITIAL GUESS ORBITALS
                              ----------------------

                              ----------------------
                              INITIAL GUESS ORBITALS
                              ----------------------

                              ASSIGNED OCCUPANCIES

                  1.000000   1.000000   0.000000   0.000000   0.000000
                  0.000000   0.000000   0.000000   0.000000   0.000000
                  0.000000   0.000000   0.000000   0.000000   0.000000
                  0.000000   0.000000   0.000000   0.000000   0.000000
                  0.000000   0.000000   0.000000   0.000000

                        1              2              3              4              5
                  -23.115266773   -6.686846728   -4.941440236   -4.941440236   -4.941440236
                       AG             AG             B3U            B2U            B1U 
    1  N  1  S     -0.462227656   -0.139127611    0.000000000    0.000000000    0.000000000
    2  N  1  S      1.387165288    0.114165769    0.000000000    0.000000000    0.000000000
    3  N  1  S      0.268993004    0.088782651    0.000000000    0.000000000    0.000000000
    4  N  1  S     -0.242898841   -0.094689379    0.000000000    0.000000000    0.000000000
    5  N  1  S     -0.094665717    0.618694192    0.000000000    0.000000000    0.000000000
    6  N  1  S     -0.139880914    0.459134235    0.000000000    0.000000000    0.000000000
    7  N  1  X      0.000000000    0.000000000    0.060211780    0.000000000    0.000000000
    8  N  1  Y      0.000000000    0.000000000    0.000000000    0.060211780    0.000000000
    9  N  1  Z      0.000000000    0.000000000    0.000000000    0.000000000    0.060211780
   10  N  1  X      0.000000000    0.000000000    0.663132630    0.000000000    0.000000000
   11  N  1  Y      0.000000000    0.000000000    0.000000000    0.663132630    0.000000000
   12  N  1  Z      0.000000000    0.000000000    0.000000000    0.000000000    0.663132630
   13  N  1  X      0.000000000    0.000000000    0.326523275    0.000000000    0.000000000
   14  N  1  Y      0.000000000    0.000000000    0.000000000    0.326523275    0.000000000
   15  N  1  Z      0.000000000    0.000000000    0.000000000    0.000000000    0.326523275
   16  N  1  X      0.000000000    0.000000000    0.010043899    0.000000000    0.000000000
   17  N  1  Y      0.000000000    0.000000000    0.000000000    0.010043899    0.000000000
   18  N  1  Z      0.000000000    0.000000000    0.000000000    0.000000000    0.010043899
   19  N  1 XX      0.000000000    0.000000000    0.000000000    0.000000000    0.000000000
   20  N  1 YY      0.000000000    0.000000000    0.000000000    0.000000000    0.000000000
   21  N  1 ZZ      0.000000000    0.000000000    0.000000000    0.000000000    0.000000000
   22  N  1 XY      0.000000000    0.000000000    0.000000000    0.000000000    0.000000000
   23  N  1 XZ      0.000000000    0.000000000    0.000000000    0.000000000    0.000000000
   24  N  1 YZ      0.000000000    0.000000000    0.000000000    0.000000000    0.000000000

                        6              7              8              9             10
                  113.884590365   44.115125907   30.912147644   28.349904909    3.739895451
                       AG             AG             AG             AG             AG  
    1  N  1  S     59.518330795    9.372915847   -1.540802491   -0.189124242   -0.299161925
    2  N  1  S    -45.605372144   -1.533245683   -2.713062936   -2.110384735    0.205594658
    3  N  1  S    -25.446981223   -6.888247262    3.023119559    1.962076381   -0.556767675
    4  N  1  S     26.833530164   -7.784845647    3.045428411    0.169797934    0.930088745
    5  N  1  S    -23.925293291   12.265395581   -2.387306352    2.185102614    0.318259222
    6  N  1  S     -9.391464700    9.547049470    4.825571743   -1.627442400   -0.340265668
    7  N  1  X      0.000000000    0.000000000    0.000000000    0.000000000    0.000000000
    8  N  1  Y      0.000000000    0.000000000    0.000000000    0.000000000    0.000000000
    9  N  1  Z      0.000000000    0.000000000    0.000000000    0.000000000    0.000000000
   10  N  1  X      0.000000000    0.000000000    0.000000000    0.000000000    0.000000000
   11  N  1  Y      0.000000000    0.000000000    0.000000000    0.000000000    0.000000000
   12  N  1  Z      0.000000000    0.000000000    0.000000000    0.000000000    0.000000000
   13  N  1  X      0.000000000    0.000000000    0.000000000    0.000000000    0.000000000
   14  N  1  Y      0.000000000    0.000000000    0.000000000    0.000000000    0.000000000
   15  N  1  Z      0.000000000    0.000000000    0.000000000    0.000000000    0.000000000
   16  N  1  X      0.000000000    0.000000000    0.000000000    0.000000000    0.000000000
   17  N  1  Y      0.000000000    0.000000000    0.000000000    0.000000000    0.000000000
   18  N  1  Z      0.000000000    0.000000000    0.000000000    0.000000000    0.000000000
   19  N  1 XX      9.496800834   -7.410350837   -1.707696632   -0.092934969   -0.264097733
   20  N  1 YY      9.496800834   -7.410350837   -1.707696632   -0.092934969   -0.264097733
   21  N  1 ZZ      9.496800834   -7.410350837   -1.707696632   -0.092934969   -0.264097733
   22  N  1 XY      0.000000000    0.000000000    0.000000000    0.000000000    0.000000000
   23  N  1 XZ      0.000000000    0.000000000    0.000000000    0.000000000    0.000000000
   24  N  1 YZ      0.000000000    0.000000000    0.000000000    0.000000000    0.000000000

                       11             12             13             14             15
                   -2.721142413   -2.721142413    7.939772423   11.815639750    5.384099718
                       AG             AG             B3U            B3U            B3U 
    1  N  1  S      0.000000000    0.000000000    0.000000000    0.000000000    0.000000000
    2  N  1  S      0.000000000    0.000000000    0.000000000    0.000000000    0.000000000
    3  N  1  S      0.000000000    0.000000000    0.000000000    0.000000000    0.000000000
    4  N  1  S      0.000000000    0.000000000    0.000000000    0.000000000    0.000000000
    5  N  1  S      0.000000000    0.000000000    0.000000000    0.000000000    0.000000000
    6  N  1  S      0.000000000    0.000000000    0.000000000    0.000000000    0.000000000
    7  N  1  X      0.000000000    0.000000000   -2.625596138    1.115974016    0.399652203
    8  N  1  Y      0.000000000    0.000000000    0.000000000    0.000000000    0.000000000
    9  N  1  Z      0.000000000    0.000000000    0.000000000    0.000000000    0.000000000
   10  N  1  X      0.000000000    0.000000000    3.691846953    0.449533543   -0.140853991
   11  N  1  Y      0.000000000    0.000000000    0.000000000    0.000000000    0.000000000
   12  N  1  Z      0.000000000    0.000000000    0.000000000    0.000000000    0.000000000
   13  N  1  X      0.000000000    0.000000000   -2.259940476   -1.031523019   -0.373141969
   14  N  1  Y      0.000000000    0.000000000    0.000000000    0.000000000    0.000000000
   15  N  1  Z      0.000000000    0.000000000    0.000000000    0.000000000    0.000000000
   16  N  1  X      0.000000000    0.000000000    1.010384395   -1.050849209    0.729448621
   17  N  1  Y      0.000000000    0.000000000    0.000000000    0.000000000    0.000000000
   18  N  1  Z      0.000000000    0.000000000    0.000000000    0.000000000    0.000000000
   19  N  1 XX     -0.857903955   -0.513810086    0.000000000    0.000000000    0.000000000
   20  N  1 YY      0.873924565   -0.486061576    0.000000000    0.000000000    0.000000000
   21  N  1 ZZ     -0.016020610    0.999871662    0.000000000    0.000000000    0.000000000
   22  N  1 XY      0.000000000    0.000000000    0.000000000    0.000000000    0.000000000
   23  N  1 XZ      0.000000000    0.000000000    0.000000000    0.000000000    0.000000000
   24  N  1 YZ      0.000000000    0.000000000    0.000000000    0.000000000    0.000000000

                       16             17             18             19             20
                   -2.721142413   -2.721142413    7.939772423   11.815639750    5.384099718
                       B3G            B1G            B1U            B1U            B1U 
    1  N  1  S      0.000000000    0.000000000    0.000000000    0.000000000    0.000000000
    2  N  1  S      0.000000000    0.000000000    0.000000000    0.000000000    0.000000000
    3  N  1  S      0.000000000    0.000000000    0.000000000    0.000000000    0.000000000
    4  N  1  S      0.000000000    0.000000000    0.000000000    0.000000000    0.000000000
    5  N  1  S      0.000000000    0.000000000    0.000000000    0.000000000    0.000000000
    6  N  1  S      0.000000000    0.000000000    0.000000000    0.000000000    0.000000000
    7  N  1  X      0.000000000    0.000000000    0.000000000    0.000000000    0.000000000
    8  N  1  Y      0.000000000    0.000000000    0.000000000    0.000000000    0.000000000
    9  N  1  Z      0.000000000    0.000000000   -2.625596138    1.115974016    0.399652203
   10  N  1  X      0.000000000    0.000000000    0.000000000    0.000000000    0.000000000
   11  N  1  Y      0.000000000    0.000000000    0.000000000    0.000000000    0.000000000
   12  N  1  Z      0.000000000    0.000000000    3.691846953    0.449533543   -0.140853991
   13  N  1  X      0.000000000    0.000000000    0.000000000    0.000000000    0.000000000
   14  N  1  Y      0.000000000    0.000000000    0.000000000    0.000000000    0.000000000
   15  N  1  Z      0.000000000    0.000000000   -2.259940476   -1.031523019   -0.373141969
   16  N  1  X      0.000000000    0.000000000    0.000000000    0.000000000    0.000000000
   17  N  1  Y      0.000000000    0.000000000    0.000000000    0.000000000    0.000000000
   18  N  1  Z      0.000000000    0.000000000    1.010384395   -1.050849209    0.729448621
   19  N  1 XX      0.000000000    0.000000000    0.000000000    0.000000000    0.000000000
   20  N  1 YY      0.000000000    0.000000000    0.000000000    0.000000000    0.000000000
   21  N  1 ZZ      0.000000000    0.000000000    0.000000000    0.000000000    0.000000000
   22  N  1 XY      0.000000000    1.000000000    0.000000000    0.000000000    0.000000000
   23  N  1 XZ      0.000000000    0.000000000    0.000000000    0.000000000    0.000000000
   24  N  1 YZ      1.000000000    0.000000000    0.000000000    0.000000000    0.000000000

                       21             22             23             24
                    7.939772423   11.815639750    5.384099718   -2.721142413
                       B2U            B2U            B2U            B2G 
    1  N  1  S      0.000000000    0.000000000    0.000000000    0.000000000
    2  N  1  S      0.000000000    0.000000000    0.000000000    0.000000000
    3  N  1  S      0.000000000    0.000000000    0.000000000    0.000000000
    4  N  1  S      0.000000000    0.000000000    0.000000000    0.000000000
    5  N  1  S      0.000000000    0.000000000    0.000000000    0.000000000
    6  N  1  S      0.000000000    0.000000000    0.000000000    0.000000000
    7  N  1  X      0.000000000    0.000000000    0.000000000    0.000000000
    8  N  1  Y     -2.625596138    1.115974016    0.399652203    0.000000000
    9  N  1  Z      0.000000000    0.000000000    0.000000000    0.000000000
   10  N  1  X      0.000000000    0.000000000    0.000000000    0.000000000
   11  N  1  Y      3.691846953    0.449533543   -0.140853991    0.000000000
   12  N  1  Z      0.000000000    0.000000000    0.000000000    0.000000000
   13  N  1  X      0.000000000    0.000000000    0.000000000    0.000000000
   14  N  1  Y     -2.259940476   -1.031523019   -0.373141969    0.000000000
   15  N  1  Z      0.000000000    0.000000000    0.000000000    0.000000000
   16  N  1  X      0.000000000    0.000000000    0.000000000    0.000000000
   17  N  1  Y      1.010384395   -1.050849209    0.729448621    0.000000000
   18  N  1  Z      0.000000000    0.000000000    0.000000000    0.000000000
   19  N  1 XX      0.000000000    0.000000000    0.000000000    0.000000000
   20  N  1 YY      0.000000000    0.000000000    0.000000000    0.000000000
   21  N  1 ZZ      0.000000000    0.000000000    0.000000000    0.000000000
   22  N  1 XY      0.000000000    0.000000000    0.000000000    0.000000000
   23  N  1 XZ      0.000000000    0.000000000    0.000000000    1.000000000
   24  N  1 YZ      0.000000000    0.000000000    0.000000000    0.000000000
 ...... END OF INITIAL ORBITAL SELECTION ......
 STEP CPU TIME =     0.01 TOTAL CPU TIME =        0.0 (    0.0 MIN)
 TOTAL WALL CLOCK TIME=        0.0 SECONDS, CPU UTILIZATION IS 100.00%

                    ----------------------
                    AO INTEGRAL TECHNOLOGY
                    ----------------------
     S,P,L SHELL ROTATED AXIS INTEGRALS, REPROGRAMMED BY
        KAZUYA ISHIMURA (IMS) AND JOSE SIERRA (SYNSTAR).
     S,P,D,L SHELL ROTATED AXIS INTEGRALS PROGRAMMED BY
        KAZUYA ISHIMURA (INSTITUTE FOR MOLECULAR SCIENCE).
     S,P,D,F,G SHELL TO TOTAL QUARTET ANGULAR MOMENTUM SUM 5,
        ERIC PROGRAM BY GRAHAM FLETCHER (ELORET AND NASA ADVANCED
        SUPERCOMPUTING DIVISION, AMES RESEARCH CENTER).
     S,P,D,F,G,L SHELL GENERAL RYS QUADRATURE PROGRAMMED BY
        MICHEL DUPUIS (PACIFIC NORTHWEST NATIONAL LABORATORY).

          --------------------
          2 ELECTRON INTEGRALS
          --------------------

 THE -PK- OPTION IS OFF, THE INTEGRALS ARE NOT IN SUPERMATRIX FORM.
 STORING   15000 INTEGRALS/RECORD ON DISK, USING 12 BYTES/INTEGRAL.
 TWO ELECTRON INTEGRAL EVALUATION REQUIRES   60762 WORDS OF MEMORY.
 II,JST,KST,LST =  1  1  1  1 NREC =         1 INTLOC =    1
 II,JST,KST,LST =  2  1  1  1 NREC =         1 INTLOC =    2
 II,JST,KST,LST =  3  1  1  1 NREC =         1 INTLOC =    7
 II,JST,KST,LST =  4  1  1  1 NREC =         1 INTLOC =   22
 II,JST,KST,LST =  5  1  1  1 NREC =         1 INTLOC =   56
 II,JST,KST,LST =  6  1  1  1 NREC =         1 INTLOC =  121
 II,JST,KST,LST =  7  1  1  1 NREC =         1 INTLOC =  232
 II,JST,KST,LST =  8  1  1  1 NREC =         1 INTLOC =  367
 II,JST,KST,LST =  9  1  1  1 NREC =         1 INTLOC =  730
 II,JST,KST,LST = 10  1  1  1 NREC =         1 INTLOC = 1429
 II,JST,KST,LST = 11  1  1  1 NREC =         1 INTLOC = 2635
 TOTAL NUMBER OF NONZERO TWO-ELECTRON INTEGRALS =                7182
          1 INTEGRAL RECORDS WERE STORED ON DISK FILE  8.
  ...... END OF TWO-ELECTRON INTEGRALS .....
 STEP CPU TIME =    11.99 TOTAL CPU TIME =       12.0 (    0.2 MIN)
 TOTAL WALL CLOCK TIME=       12.8 SECONDS, CPU UTILIZATION IS  94.06%

          ---------------------------
                 ROHF SCF CALCULATION
          ---------------------------

     NUCLEAR ENERGY =         0.0000000000
     MAXIT =200     NPUNCH=  2     MULT=  4
     EXTRAP=T  DAMP=F  SHIFT=F  RSTRCT=F  DIIS=F  SOSCF=T
     DENSITY MATRIX CONV=  1.00E-05
     ROHF CANONICALIZATION PARAMETERS
             C-C     O-O     V-V
     ALPHA -0.5000  0.5000  1.5000
     BETA   1.5000  0.5000 -0.5000
     SOSCF WILL OPTIMIZE     101 ORBITAL ROTATION ANGLES. SOGTOL= 2.500E-01
     MEMORY REQUIRED FOR UHF/ROHF STEP=     36087 WORDS.

 ITER EX     TOTAL ENERGY       E CHANGE  DENSITY CHANGE    ORB. GRAD 
   1  0      -54.323069154   -54.323069154   2.266719612   0.000000000
          ---------------START SECOND ORDER SCF---------------
   2  1      -54.393789501    -0.070720347   0.457226707   0.044952717
   3  2      -54.396939664    -0.003150163   0.203099014   0.031260927
   4  3      -54.400603242    -0.003663578   0.001313374   0.000820618
   5  4      -54.400603837    -0.000000595   0.000299262   0.000051687
   6  5      -54.400603839    -0.000000002   0.000077982   0.000005188
   7  6      -54.400603839     0.000000000   0.000004929   0.000001846
   8  7      -54.400603839     0.000000000   0.000000655   0.000000080

          -----------------
          DENSITY CONVERGED
          -----------------

 FINAL ROHF ENERGY IS      -54.4006038391 AFTER   8 ITERATIONS

          --------------------
          SPIN SZ   =    1.500
          S-SQUARED =    3.750
          --------------------

          ------------
          EIGENVECTORS
          ------------

                        1              2              3              4              5
                  -15.541267214   -0.530972204   -0.178631943   -0.178631943   -0.178631943
                       AG             AG             B2U            B1U            B3U 
    1  N  1  S      0.186188192    0.048058124    0.000000000    0.000000000    0.000000000
    2  N  1  S      0.840594984   -0.291360674    0.000000000    0.000000000    0.000000000
    3  N  1  S      0.008901538   -0.020996010    0.000000000    0.000000000    0.000000000
    4  N  1  S     -0.051969959   -0.034028084    0.000000000    0.000000000    0.000000000
    5  N  1  S      0.033794584    0.567894204    0.000000000    0.000000000    0.000000000
    6  N  1  S      0.007559286    0.571171254    0.000000000    0.000000000    0.000000000
    7  N  1  X      0.000000000    0.000000000    0.000000000    0.000000000    0.103668864
    8  N  1  Y      0.000000000    0.000000000    0.103668864    0.000000000    0.000000000
    9  N  1  Z      0.000000000    0.000000000    0.000000000    0.103668864    0.000000000
   10  N  1  X      0.000000000    0.000000000    0.000000000    0.000000000    0.517109280
   11  N  1  Y      0.000000000    0.000000000    0.517109280    0.000000000    0.000000000
   12  N  1  Z      0.000000000    0.000000000    0.000000000    0.517109280    0.000000000
   13  N  1  X      0.000000000    0.000000000    0.000000000    0.000000000    0.451469177
   14  N  1  Y      0.000000000    0.000000000    0.451469177    0.000000000    0.000000000
   15  N  1  Z      0.000000000    0.000000000    0.000000000    0.451469177    0.000000000
   16  N  1  X      0.000000000    0.000000000    0.000000000    0.000000000    0.001415174
   17  N  1  Y      0.000000000    0.000000000    0.001415174    0.000000000    0.000000000
   18  N  1  Z      0.000000000    0.000000000    0.000000000    0.001415174    0.000000000
   19  N  1 XX     -0.012234967   -0.014955885    0.000000000    0.000000000    0.000000000
   20  N  1 YY     -0.012234967   -0.014955885    0.000000000    0.000000000    0.000000000
   21  N  1 ZZ     -0.012234967   -0.014955885    0.000000000    0.000000000    0.000000000
   22  N  1 XY      0.000000000    0.000000000    0.000000000    0.000000000    0.000000000
   23  N  1 XZ      0.000000000    0.000000000    0.000000000    0.000000000    0.000000000
   24  N  1 YZ      0.000000000    0.000000000    0.000000000    0.000000000    0.000000000

                        6              7              8              9             10
                    0.340724010    0.605551085    0.605551085    0.605551085    1.641029152
                       AG             B2U            B3U            B1U            AG  
    1  N  1  S     -1.643518138    0.000000000    0.000000000    0.000000000    0.000000000
    2  N  1  S      1.854814758    0.000000000    0.000000000    0.000000000    0.000000000
    3  N  1  S      0.495862550    0.000000000    0.000000000    0.000000000    0.000000000
    4  N  1  S     -2.421556131    0.000000000    0.000000000    0.000000000    0.000000000
    5  N  1  S      1.931518918    0.000000000    0.000000000    0.000000000    0.000000000
    6  N  1  S      7.290359038    0.000000000    0.000000000    0.000000000    0.000000000
    7  N  1  X      0.000000000    0.000000000   -0.286497137    0.000000000    0.000000000
    8  N  1  Y      0.000000000   -0.286497137    0.000000000    0.000000000    0.000000000
    9  N  1  Z      0.000000000    0.000000000    0.000000000   -0.286497137    0.000000000
   10  N  1  X      0.000000000    0.000000000    2.130368758    0.000000000    0.000000000
   11  N  1  Y      0.000000000    2.130368758    0.000000000    0.000000000    0.000000000
   12  N  1  Z      0.000000000    0.000000000    0.000000000    2.130368758    0.000000000
   13  N  1  X      0.000000000    0.000000000   -2.032743755    0.000000000    0.000000000
   14  N  1  Y      0.000000000   -2.032743755    0.000000000    0.000000000    0.000000000
   15  N  1  Z      0.000000000    0.000000000    0.000000000   -2.032743755    0.000000000
   16  N  1  X      0.000000000    0.000000000    0.047860554    0.000000000    0.000000000
   17  N  1  Y      0.000000000    0.047860554    0.000000000    0.000000000    0.000000000
   18  N  1  Z      0.000000000    0.000000000    0.000000000    0.047860554    0.000000000
   19  N  1 XX     -3.514123160    0.000000000    0.000000000    0.000000000   -0.564761766
   20  N  1 YY     -3.514123160    0.000000000    0.000000000    0.000000000   -0.432310037
   21  N  1 ZZ     -3.514123160    0.000000000    0.000000000    0.000000000    0.997071803
   22  N  1 XY      0.000000000    0.000000000    0.000000000    0.000000000    0.000000000
   23  N  1 XZ      0.000000000    0.000000000    0.000000000    0.000000000    0.000000000
   24  N  1 YZ      0.000000000    0.000000000    0.000000000    0.000000000    0.000000000

                       11             12             13             14             15
                    1.641029152    1.641029152    1.641029152    1.641029152    1.996491042
                       B3G            B2G            B1G            AG             AG  
    1  N  1  S      0.000000000    0.000000000    0.000000000    0.000000000   -4.832585019
    2  N  1  S      0.000000000    0.000000000    0.000000000    0.000000000    4.774932852
    3  N  1  S      0.000000000    0.000000000    0.000000000    0.000000000    1.446346794
    4  N  1  S      0.000000000    0.000000000    0.000000000    0.000000000   -7.076010025
    5  N  1  S      0.000000000    0.000000000    0.000000000    0.000000000   10.992551746
    6  N  1  S      0.000000000    0.000000000    0.000000000    0.000000000    8.539161760
    7  N  1  X      0.000000000    0.000000000    0.000000000    0.000000000    0.000000000
    8  N  1  Y      0.000000000    0.000000000    0.000000000    0.000000000    0.000000000
    9  N  1  Z      0.000000000    0.000000000    0.000000000    0.000000000    0.000000000
   10  N  1  X      0.000000000    0.000000000    0.000000000    0.000000000    0.000000000
   11  N  1  Y      0.000000000    0.000000000    0.000000000    0.000000000    0.000000000
   12  N  1  Z      0.000000000    0.000000000    0.000000000    0.000000000    0.000000000
   13  N  1  X      0.000000000    0.000000000    0.000000000    0.000000000    0.000000000
   14  N  1  Y      0.000000000    0.000000000    0.000000000    0.000000000    0.000000000
   15  N  1  Z      0.000000000    0.000000000    0.000000000    0.000000000    0.000000000
   16  N  1  X      0.000000000    0.000000000    0.000000000    0.000000000    0.000000000
   17  N  1  Y      0.000000000    0.000000000    0.000000000    0.000000000    0.000000000
   18  N  1  Z      0.000000000    0.000000000    0.000000000    0.000000000    0.000000000
   19  N  1 XX      0.000000000    0.000000000    0.000000000   -0.825253990   -6.837512461
   20  N  1 YY      0.000000000    0.000000000    0.000000000    0.901725031   -6.837512461
   21  N  1 ZZ      0.000000000    0.000000000    0.000000000   -0.076471042   -6.837512461
   22  N  1 XY      0.000000000    0.000000000    1.000000000    0.000000000    0.000000000
   23  N  1 XZ      0.000000000    1.000000000    0.000000000    0.000000000    0.000000000
   24  N  1 YZ      1.000000000    0.000000000    0.000000000    0.000000000    0.000000000

                       16             17             18             19             20
                    4.783310585    4.783310585    4.783310585    8.008157014   34.237599911
                       B1U            B2U            B3U            AG             AG  
    1  N  1  S      0.000000000    0.000000000    0.000000000  -14.120681311   33.746251634
    2  N  1  S      0.000000000    0.000000000    0.000000000   14.992043857  -29.009217625
    3  N  1  S      0.000000000    0.000000000    0.000000000    4.363382058  -11.982236445
    4  N  1  S      0.000000000    0.000000000    0.000000000  -15.383064241   16.950940376
    5  N  1  S      0.000000000    0.000000000    0.000000000   16.786545569  -14.207742857
    6  N  1  S      0.000000000    0.000000000    0.000000000    6.651230688   -4.712075148
    7  N  1  X      0.000000000    0.000000000   -2.198515800    0.000000000    0.000000000
    8  N  1  Y      0.000000000   -2.198515800    0.000000000    0.000000000    0.000000000
    9  N  1  Z     -2.198515800    0.000000000    0.000000000    0.000000000    0.000000000
   10  N  1  X      0.000000000    0.000000000    2.706283889    0.000000000    0.000000000
   11  N  1  Y      0.000000000    2.706283889    0.000000000    0.000000000    0.000000000
   12  N  1  Z      2.706283889    0.000000000    0.000000000    0.000000000    0.000000000
   13  N  1  X      0.000000000    0.000000000   -1.289379125    0.000000000    0.000000000
   14  N  1  Y      0.000000000   -1.289379125    0.000000000    0.000000000    0.000000000
   15  N  1  Z     -1.289379125    0.000000000    0.000000000    0.000000000    0.000000000
   16  N  1  X      0.000000000    0.000000000    0.256130586    0.000000000    0.000000000
   17  N  1  Y      0.000000000    0.256130586    0.000000000    0.000000000    0.000000000
   18  N  1  Z      0.256130586    0.000000000    0.000000000    0.000000000    0.000000000
   19  N  1 XX      0.000000000    0.000000000    0.000000000   -6.825160740    5.162599542
   20  N  1 YY      0.000000000    0.000000000    0.000000000   -6.825160740    5.162599542
   21  N  1 ZZ      0.000000000    0.000000000    0.000000000   -6.825160740    5.162599542
   22  N  1 XY      0.000000000    0.000000000    0.000000000    0.000000000    0.000000000
   23  N  1 XZ      0.000000000    0.000000000    0.000000000    0.000000000    0.000000000
   24  N  1 YZ      0.000000000    0.000000000    0.000000000    0.000000000    0.000000000

                       21             22             23             24
                   41.105632592   41.105632592   41.105632592  213.658977670
                       B1U            B2U            B3U            AG  
    1  N  1  S      0.000000000    0.000000000    0.000000000   47.631087072
    2  N  1  S      0.000000000    0.000000000    0.000000000  -31.664915549
    3  N  1  S      0.000000000    0.000000000    0.000000000  -23.311469648
    4  N  1  S      0.000000000    0.000000000    0.000000000   14.524734198
    5  N  1  S      0.000000000    0.000000000    0.000000000  -11.193205598
    6  N  1  S      0.000000000    0.000000000    0.000000000   -3.576477564
    7  N  1  X      0.000000000    0.000000000    1.837444110    0.000000000
    8  N  1  Y      0.000000000    1.837444110    0.000000000    0.000000000
    9  N  1  Z      1.837444110    0.000000000    0.000000000    0.000000000
   10  N  1  X      0.000000000    0.000000000   -1.470222270    0.000000000
   11  N  1  Y      0.000000000   -1.470222270    0.000000000    0.000000000
   12  N  1  Z     -1.470222270    0.000000000    0.000000000    0.000000000
   13  N  1  X      0.000000000    0.000000000    0.647188498    0.000000000
   14  N  1  Y      0.000000000    0.647188498    0.000000000    0.000000000
   15  N  1  Z      0.647188498    0.000000000    0.000000000    0.000000000
   16  N  1  X      0.000000000    0.000000000   -1.609180332    0.000000000
   17  N  1  Y      0.000000000   -1.609180332    0.000000000    0.000000000
   18  N  1  Z     -1.609180332    0.000000000    0.000000000    0.000000000
   19  N  1 XX      0.000000000    0.000000000    0.000000000    3.969996618
   20  N  1 YY      0.000000000    0.000000000    0.000000000    3.969996618
   21  N  1 ZZ      0.000000000    0.000000000    0.000000000    3.969996618
   22  N  1 XY      0.000000000    0.000000000    0.000000000    0.000000000
   23  N  1 XZ      0.000000000    0.000000000    0.000000000    0.000000000
   24  N  1 YZ      0.000000000    0.000000000    0.000000000    0.000000000
 ...... END OF ROHF CALCULATION ......
 STEP CPU TIME =     0.01 TOTAL CPU TIME =       12.0 (    0.2 MIN)
 TOTAL WALL CLOCK TIME=       12.8 SECONDS, CPU UTILIZATION IS  94.14%

          -----------------
          ENERGY COMPONENTS
          -----------------

         WAVEFUNCTION NORMALIZATION =       1.0000000000

                ONE ELECTRON ENERGY =     -73.9581984733
                TWO ELECTRON ENERGY =      19.5575946342
           NUCLEAR REPULSION ENERGY =       0.0000000000
                                      ------------------
                       TOTAL ENERGY =     -54.4006038391

 ELECTRON-ELECTRON POTENTIAL ENERGY =      19.5575946342
  NUCLEUS-ELECTRON POTENTIAL ENERGY =    -128.3602892485
   NUCLEUS-NUCLEUS POTENTIAL ENERGY =       0.0000000000
                                      ------------------
             TOTAL POTENTIAL ENERGY =    -108.8026946142
               TOTAL KINETIC ENERGY =      54.4020907752
                 VIRIAL RATIO (V/T) =       1.9999726677

          ---------------------------------------
          MULLIKEN AND LOWDIN POPULATION ANALYSES
          ---------------------------------------

     MULLIKEN ATOMIC POPULATION IN EACH MOLECULAR ORBITAL

                      1          2          3          4          5

                  2.000000   2.000000   1.000000   1.000000   1.000000

    1             2.000000   2.000000   1.000000   1.000000   1.000000

     ATOMIC SPIN POPULATION (ALPHA MINUS BETA)
       ATOM         MULL.POP.                    LOW.POP.
    1 N             3.000000                     3.000000

               ----- POPULATIONS IN EACH AO -----
                             MULLIKEN      LOWDIN
              1  N  1  S      0.35063     0.62497
              2  N  1  S      1.65106     0.79348
              3  N  1  S      0.02101     0.38538
              4  N  1  S     -0.10405     0.31707
              5  N  1  S      1.04993     0.48419
              6  N  1  S      1.10347     0.54473
              7  N  1  X      0.07127     0.13023
              8  N  1  Y      0.07127     0.13023
              9  N  1  Z      0.07127     0.13023
             10  N  1  X      0.50614     0.43318
             11  N  1  Y      0.50614     0.43318
             12  N  1  Z      0.50614     0.43318
             13  N  1  X      0.42221     0.42965
             14  N  1  Y      0.42221     0.42965
             15  N  1  Z      0.42221     0.42965
             16  N  1  X      0.00038     0.00693
             17  N  1  Y      0.00038     0.00693
             18  N  1  Z      0.00038     0.00693
             19  N  1 XX     -0.02402     0.28339
             20  N  1 YY     -0.02402     0.28339
             21  N  1 ZZ     -0.02402     0.28339
             22  N  1 XY      0.00000     0.00000
             23  N  1 XZ      0.00000     0.00000
             24  N  1 YZ      0.00000     0.00000

          ----- MULLIKEN ATOMIC OVERLAP POPULATIONS -----
          (OFF-DIAGONAL ELEMENTS NEED TO BE MULTIPLIED BY 2)

             1

    1    7.0000000

          TOTAL MULLIKEN AND LOWDIN ATOMIC POPULATIONS
       ATOM         MULL.POP.    CHARGE          LOW.POP.     CHARGE
    1 N             7.000000    0.000000         7.000000    0.000000

          -------------------------------
          BOND ORDER AND VALENCE ANALYSIS     BOND ORDER THRESHOLD=0.050
          -------------------------------

                   BOND                       BOND                       BOND
  ATOM PAIR DIST  ORDER      ATOM PAIR DIST  ORDER      ATOM PAIR DIST  ORDER

                       TOTAL       BONDED        FREE
      ATOM            VALENCE     VALENCE     VALENCE
    1 N                 3.000       0.000       3.000

          -----------------------------------------
          ATOMIC SPIN DENSITY AT THE NUCLEUS (A.U.)
          -----------------------------------------
                            SPIN DENS    ALPHA DENS     BETA DENS
    1  N            7.0     0.0000000     101.62947     101.62947

          ---------------------
          ELECTROSTATIC MOMENTS
          ---------------------

 POINT   1           X           Y           Z (BOHR)    CHARGE
                 0.000000    0.000000    0.000000        0.00 (A.U.)
         DX          DY          DZ         /D/  (DEBYE)
     0.000000    0.000000    0.000000    0.000000
 ...... END OF PROPERTY EVALUATION ......
 STEP CPU TIME =     0.01 TOTAL CPU TIME =       12.1 (    0.2 MIN)
 TOTAL WALL CLOCK TIME=       12.8 SECONDS, CPU UTILIZATION IS  94.22%
 100000 WORDS OF DYNAMIC MEMORY USED
 EXECUTION OF GAMESS TERMINATED NORMALLY Sat Jan 27 10:44:31 2007
 DDI: 920 bytes (0.0 MB / 0 MWords) used by master data server.

 ----------------------------------------
 CPU timing information for all processes
 ========================================
 0: 12.040000 + 0.030000 = 12.070000
 ----------------------------------------
 ddikick.x: exited gracefully.
----- accounting info -----
Sat Jan 27 10:44:34 EST 2007
Files used on the master node nanolab.cnf.cornell.edu were:
-rw-r-----    1 toulouse users         450 Jan 27 10:44 /tmp/n_sto14g_cvb1_hf.F05
-rw-r--r--    1 toulouse users      180012 Jan 27 10:44 /tmp/n_sto14g_cvb1_hf.F08
-rw-r--r--    1 toulouse users      387048 Jan 27 10:44 /tmp/n_sto14g_cvb1_hf.F10
0.020u 0.040s 0:16.44 0.3%	0+0k 0+0io 6134pf+0w
