----- GAMESS execution script -----
This job is running on host b40
under operating system Linux at Wed Nov 7 09:18:46 EST 2007
Available scratch disk space (Kbyte units) at beginning of the job is
Filesystem           1K-blocks      Used Available Use% Mounted on
/dev/sda6             58325904   4944824  50418296   9% /scratch

 Distributed Data Interface kickoff program.
 Initiating 1 compute processes on 1 nodes to run the following command:
 /home/toulouse/programs/gamess_modified/gamess.00.x c_sto14g_cvb1_uhf_c1 

          ******************************************************
          *         GAMESS VERSION = 22 NOV 2004 (R1)          *
          *             FROM IOWA STATE UNIVERSITY             *
          * M.W.SCHMIDT, K.K.BALDRIDGE, J.A.BOATZ, S.T.ELBERT, *
          *   M.S.GORDON, J.H.JENSEN, S.KOSEKI, N.MATSUNAGA,   *
          *          K.A.NGUYEN, S.J.SU, T.L.WINDUS,           *
          *       TOGETHER WITH M.DUPUIS, J.A.MONTGOMERY       *
          *         J.COMPUT.CHEM.  14, 1347-1363(1993)        *
          ******************* PC-UNIX VERSION ******************

     SINCE 1993, STUDENTS AND POSTDOCS WORKING AT IOWA STATE UNIVERSITY
     AND ALSO IN THEIR VARIOUS JOBS AFTER LEAVING ISU HAVE MADE IMPORTANT
     CONTRIBUTIONS TO THE CODE:
     IVANA ADAMOVIC, CHRISTINE AIKENS, ROB BELL, PRADIPTA BANDYOPADHYAY,
     BRETT BODE, GALINA CHABAN, WEI CHEN, CHEOL HO CHOI, PAUL DAY,
     TIM DUDLEY, DMITRI FEDOROV, GRAHAM FLETCHER, MARK FREITAG,
     KURT GLAESEMANN, GRANT MERRILL, HEATHER NETZLOFF, RYAN OLSON,
     MIKE PAK, JIM SHOEMAKER, TETSUYA TAKETSUGU, SIMON WEBB.

     ADDITIONAL CODE HAS BEEN PROVIDED BY COLLABORATORS IN OTHER GROUPS:
     IOWA STATE UNIVERSITY: JOE IVANIC, KLAUS RUEDENBERG
     UNIVERSITY OF TOKYO: KIMIHIKO HIRAO, HARUYUKI NAKANO, TAKAHITO
          NAKAJIMA, TAKAO TSUNEDA, MUNEAKI KAMIYA, SUSUMU YANAGISAWA,
          KIYOSHI YAGI
     ODENSE UNIVERSITY: FRANK JENSEN
     UNIVERSITY OF IOWA: VISVALDAS KAIRYS, HUI LI
     NATIONAL INST. OF STANDARDS AND TECHNOLOGY: WALT STEVENS, DAVID GARMER
     UNIVERSITY OF PISA: BENEDETTA MENNUCCI, JACOPO TOMASI
     UNIVERSITY OF MEMPHIS: HENRY KURTZ, PRAKASHAN KORAMBATH
     UNIVERSITY OF ALBERTA: MARIUSZ KLOBUKOWSKI
     UNIVERSITY OF NEW ENGLAND: MARK SPACKMAN
     MIE UNIVERSITY: HIROAKI UMEDA
     MICHIGAN STATE UNIVERSITY: KAROL KOWALSKI, PIOTR PIECUCH
     UNIVERSITY OF SILESIA: MONIKA MUSIAL, STANISLAW KUCHARSKI
     FACULTES UNIVERSITAIRES NOTRE-DAME DE LA PAIX:
          OLIVIER QUINET, BENOIT CHAMPAGNE
     UNIVERSITY OF CALIFORNIA - SANTA BARBARA: BERNARD KIRTMAN
     INSTITUTE FOR MOLECULAR SCIENCE: KAZUYA ISHIMURA AND SHIGERU NAGASE

 EXECUTION OF GAMESS BEGUN Wed Nov  7 09:18:46 2007

            ECHO OF THE FIRST FEW INPUT CARDS -
 INPUT CARD> $CONTRL                                                                        
 INPUT CARD>   EXETYP=RUN                                                                   
 INPUT CARD>   COORD=UNIQUE UNITS=BOHR                                                      
 INPUT CARD>   RUNTYP=ENERGY SCFTYP=UHF MAXIT=200                                           
 INPUT CARD>   MULT=3                                                                       
 INPUT CARD> $END                                                                           
 INPUT CARD>                                                                                
 INPUT CARD> $GUESS                                                                         
 INPUT CARD>  GUESS=HUCKEL                                                                  
 INPUT CARD>  MIX=.TRUE.                                                                    
 INPUT CARD>  PRTMO=.TRUE.                                                                  
 INPUT CARD> $END                                                                           
 INPUT CARD>                                                                                
 INPUT CARD> $DATA                                                                          
 INPUT CARD>- C sto14g_cvb1 uhf c1                                                          
 INPUT CARD>C1                                                                              
 INPUT CARD>C 6.0      0.0        0.0        0.0                                            
 INPUT CARD>1S   14   8.361682                                                              
 INPUT CARD>1S   14   5.206173                                                              
 INPUT CARD>1S   14   10.30548                                                              
 INPUT CARD>2S   14   4.063249                                                              
 INPUT CARD>2S   14   2.057774                                                              
 INPUT CARD>2S   14   1.329176                                                              
 INPUT CARD>2P   14   3.571537                                                              
 INPUT CARD>2P   14   1.748226                                                              
 INPUT CARD>2P   14   1.059707                                                              
 INPUT CARD>2P   14   8.081902                                                              
 INPUT CARD>3D   14   1.953933                                                              
 INPUT CARD>                                                                                
 INPUT CARD> $END                                                                           

 ..... DONE SETTING UP THE RUN .....
    1000000 WORDS OF MEMORY AVAILABLE


     RUN TITLE
     ---------
 - C sto14g_cvb1 uhf c1                                                          

 THE POINT GROUP OF THE MOLECULE IS C1      
 THE ORDER OF THE PRINCIPAL AXIS IS     0

 ATOM      ATOMIC                      COORDINATES (BOHR)
           CHARGE         X                   Y                   Z
 C           6.0     0.0000000000        0.0000000000        0.0000000000

          INTERNUCLEAR DISTANCES (ANGS.)
          ------------------------------

                    C         

  1  C               0.0000000    

  * ... LESS THAN  3.000

 ATOMS: STO-NG TYPE BASIS SET

     ATOMIC BASIS SET
     ----------------
 THE CONTRACTED PRIMITIVE FUNCTIONS HAVE BEEN UNNORMALIZED
 THE CONTRACTED BASIS FUNCTIONS ARE NOW NORMALIZED TO UNITY

 SHELL TYPE PRIMITIVE    SLATER EXPONENT     EXPONENT          CONTRACTION COEFFICIENTS

 C         

   1   1S   1             8.3616820        150056.7199863      0.000032071854
   1   1S   2                               27561.7070829      0.000180868724
   1   1S   3                                7722.9076318      0.000715732871
   1   1S   4                                2661.7435314      0.002327137410
   1   1S   5                                1044.3532224      0.006621033466
   1   1S   6                                 448.8377659      0.016968581946
   1   1S   7                                 206.5872377      0.039565969540
   1   1S   8                                 100.3596710      0.083424650726
   1   1S   9                                  50.9389479      0.155102805406
   1   1S  10                                  26.8091665      0.241346852708
   1   1S  11                                  14.5383833      0.286294283519
   1   1S  12                                   8.0700742      0.220624522944
   1   1S  13                                   4.5379096      0.083307088014
   1   1S  14                                   2.5144336      0.008488240712

   2   1S  15             5.2061730         58170.8414755      0.000032071854
   2   1S  16                               10684.5444420      0.000180868724
   2   1S  17                                2993.8548278      0.000715732871
   2   1S  18                                1031.8488971      0.002327137410
   2   1S  19                                 404.8529499      0.006621033466
   2   1S  20                                 173.9960099      0.016968581946
   2   1S  21                                  80.0854068      0.039565969540
   2   1S  22                                  38.9053320      0.083424650726
   2   1S  23                                  19.7469428      0.155102805406
   2   1S  24                                  10.3928153      0.241346852708
   2   1S  25                                   5.6359355      0.286294283519
   2   1S  26                                   3.1284371      0.220624522944
   2   1S  27                                   1.7591616      0.083307088014
   2   1S  28                                   0.9747429      0.008488240712

   3   1S  29            10.3054800        227931.6344248      0.000032071854
   3   1S  30                               41865.4022526      0.000180868724
   3   1S  31                               11730.8638973      0.000715732871
   3   1S  32                                4043.1081900      0.002327137410
   3   1S  33                                1586.3410644      0.006621033466
   3   1S  34                                 681.7710369      0.016968581946
   3   1S  35                                 313.7997868      0.039565969540
   3   1S  36                                 152.4433150      0.083424650726
   3   1S  37                                  77.3747264      0.155102805406
   3   1S  38                                  40.7223158      0.241346852708
   3   1S  39                                  22.0833661      0.286294283519
   3   1S  40                                  12.2581994      0.220624522944
   3   1S  41                                   6.8929480      0.083307088014
   3   1S  42                                   3.8193489      0.008488240712

   4   2S  43             4.0632490         48303.7798473     -0.000012553657
   4   2S  44                                8884.6381945     -0.000070674213
   4   2S  45                                2490.8791051     -0.000279006252
   4   2S  46                                 858.6516770     -0.000902551677
   4   2S  47                                 336.7774190     -0.002539637688
   4   2S  48                                 144.4905074     -0.006358497668
   4   2S  49                                  66.1898951     -0.014091245591
   4   2S  50                                  31.8437686     -0.026247761699
   4   2S  51                                  15.9275250     -0.033835499906
   4   2S  52                                   4.4366016      0.136316565351
   4   2S  53                                   2.4715154      0.346615099999
   4   2S  54                                   1.4202011      0.394391440628
   4   2S  55                                   0.8323102      0.179466944874
   4   2S  56                                   0.4834049      0.019147909853

   5   2S  57             2.0577740         12388.8100216     -0.000012553657
   5   2S  58                                2278.7056220     -0.000070674213
   5   2S  59                                 638.8532764     -0.000279006252
   5   2S  60                                 220.2244324     -0.000902551677
   5   2S  61                                  86.3756724     -0.002539637688
   5   2S  62                                  37.0584963     -0.006358497668
   5   2S  63                                  16.9761878     -0.014091245591
   5   2S  64                                   8.1671952     -0.026247761699
   5   2S  65                                   4.0850443     -0.033835499906
   5   2S  66                                   1.1378864      0.136316565351
   5   2S  67                                   0.6338869      0.346615099999
   5   2S  68                                   0.3642490      0.394391440628
   5   2S  69                                   0.2134685      0.179466944874
   5   2S  70                                   0.1239822      0.019147909853

   6   2S  71             1.3291760          5168.9130170     -0.000012553657
   6   2S  72                                 950.7314367     -0.000070674213
   6   2S  73                                 266.5451331     -0.000279006252
   6   2S  74                                  91.8829923     -0.000902551677
   6   2S  75                                  36.0380324     -0.002539637688
   6   2S  76                                  15.4617065     -0.006358497668
   6   2S  77                                   7.0828786     -0.014091245591
   6   2S  78                                   3.4075526     -0.026247761699
   6   2S  79                                   1.7043799     -0.033835499906
   6   2S  80                                   0.4747539      0.136316565351
   6   2S  81                                   0.2644731      0.346615099999
   6   2S  82                                   0.1519735      0.394391440628
   6   2S  83                                   0.0890642      0.179466944874
   6   2S  84                                   0.0517284      0.019147909853

   7   2P  85             3.5715370          2915.8786183      0.000013589949
   7   2P  86                                 761.8587697      0.000098737858
   7   2P  87                                 273.6900791      0.000479801845
   7   2P  88                                 115.3743497      0.001857311798
   7   2P  89                                  53.8222662      0.006124920625
   7   2P  90                                  26.9746159      0.017694065197
   7   2P  91                                  14.2717649      0.045024238144
   7   2P  92                                   7.8802627      0.099589645015
   7   2P  93                                   4.5040111      0.185117675279
   7   2P  94                                   2.6479025      0.272215006419
   7   2P  95                                   1.5921962      0.287038979472
   7   2P  96                                   0.9729926      0.185359431716
   7   2P  97                                   0.5981006      0.055951602281
   7   2P  98                                   0.3602260      0.004428704232

   8   2P  99             1.7482260           698.6413458      0.000013589949
   8   2P 100                                 182.5405327      0.000098737858
   8   2P 101                                  65.5758453      0.000479801845
   8   2P 102                                  27.6435687      0.001857311798
   8   2P 103                                  12.8957565      0.006124920625
   8   2P 104                                   6.4630886      0.017694065197
   8   2P 105                                   3.4194993      0.045024238144
   8   2P 106                                   1.8881024      0.099589645015
   8   2P 107                                   1.0791562      0.185117675279
   8   2P 108                                   0.6344346      0.272215006419
   8   2P 109                                   0.3814885      0.287038979472
   8   2P 110                                   0.2331280      0.185359431716
   8   2P 111                                   0.1433043      0.055951602281
   8   2P 112                                   0.0863097      0.004428704232

   9   2P 113             1.0597070           256.7028795      0.000013589949
   9   2P 114                                  67.0711527      0.000098737858
   9   2P 115                                  24.0946351      0.000479801845
   9   2P 116                                  10.1571196      0.001857311798
   9   2P 117                                   4.7383079      0.006124920625
   9   2P 118                                   2.3747427      0.017694065197
   9   2P 119                                   1.2564320      0.045024238144
   9   2P 120                                   0.6937484      0.099589645015
   9   2P 121                                   0.3965160      0.185117675279
   9   2P 122                                   0.2331113      0.272215006419
   9   2P 123                                   0.1401709      0.287038979472
   9   2P 124                                   0.0856586      0.185359431716
   9   2P 125                                   0.0526545      0.055951602281
   9   2P 126                                   0.0317129      0.004428704232

  10   2P 127             8.0819020         14930.9105587      0.000013589949
  10   2P 128                                3901.1380918      0.000098737858
  10   2P 129                                1401.4445136      0.000479801845
  10   2P 130                                 590.7804546      0.001857311798
  10   2P 131                                 275.5997585      0.006124920625
  10   2P 132                                 138.1249463      0.017694065197
  10   2P 133                                  73.0793263      0.045024238144
  10   2P 134                                  40.3513015      0.099589645015
  10   2P 135                                  23.0630267      0.185117675279
  10   2P 136                                  13.5587246      0.272215006419
  10   2P 137                                   8.1529249      0.287038979472
  10   2P 138                                   4.9822599      0.185359431716
  10   2P 139                                   3.0626060      0.055951602281
  10   2P 140                                   1.8445561      0.004428704232

  11   3D 141             1.9539330           214.3522735      0.000007211834
  11   3D 142                                  69.0248952      0.000064571730
  11   3D 143                                  28.8400973      0.000370632597
  11   3D 144                                  13.7589123      0.001645715217
  11   3D 145                                   7.1433105      0.006063213603
  11   3D 146                                   3.9382335      0.019041368835
  11   3D 147                                   2.2721520      0.051097955816
  11   3D 148                                   1.3586212      0.115162924520
  11   3D 149                                   0.8360653      0.209894375084
  11   3D 150                                   0.5265355      0.290459604554
  11   3D 151                                   0.3375961      0.276700110656
  11   3D 152                                   0.2190230      0.155660868486
  11   3D 153                                   0.1423611      0.039819181169
  11   3D 154                                   0.0904241      0.002624443047

 TOTAL NUMBER OF BASIS SET SHELLS             =   11
 NUMBER OF CARTESIAN GAUSSIAN BASIS FUNCTIONS =   24
 NUMBER OF ELECTRONS                          =    6
 CHARGE OF MOLECULE                           =    0
 SPIN MULTIPLICITY                            =    3
 NUMBER OF OCCUPIED ORBITALS (ALPHA)          =    4
 NUMBER OF OCCUPIED ORBITALS (BETA )          =    2
 TOTAL NUMBER OF ATOMS                        =    1
 THE NUCLEAR REPULSION ENERGY IS        0.0000000000

 THIS MOLECULE IS RECOGNIZED AS BEING LINEAR.

     $CONTRL OPTIONS
     ---------------
 SCFTYP=UHF          RUNTYP=ENERGY       EXETYP=RUN     
 MPLEVL=       0     CITYP =NONE         CCTYP =NONE    
 MULT  =       3     ICHARG=       0     NZVAR =       0     COORD =UNIQUE  
 ECP   =NONE         RELWFN=NONE         LOCAL =NONE         NUMGRD=       F
 ISPHER=      -1     NOSYM =       0     MAXIT =     200     UNITS =BOHR    
 PLTORB=       F     MOLPLT=       F     AIMPAC=       F     FRIEND=        
 NPRINT=       7     IREST =       0     GEOM  =INPUT   
 NORMF =       0     NORMP =       0     ITOL  =      20     ICUT  =       9
 INTTYP=BEST         GRDTYP=BEST         QMTTOL= 1.0E-06

     $SYSTEM OPTIONS
     ---------------
  REPLICATED MEMORY=     1000000 WORDS (ON EVERY NODE).
 DISTRIBUTED MEMDDI=           0 MILLION WORDS IN AGGREGATE,
 MEMDDI DISTRIBUTED OVER   1 PROCESSORS IS           0 WORDS/PROCESSOR.
 TOTAL MEMORY REQUESTED ON EACH PROCESSOR=     1000000 WORDS.
 TIMLIM=      525600.00 MINUTES, OR   365.00 DAYS.
 PARALL= F  BALTYP=  NXTVAL  KDIAG=    0  COREFL= F

          ----------------
          PROPERTIES INPUT
          ----------------

     MOMENTS            FIELD           POTENTIAL          DENSITY
 IEMOM =       1   IEFLD =       0   IEPOT =       0   IEDEN =       0
 WHERE =COMASS     WHERE =NUCLEI     WHERE =NUCLEI     WHERE =NUCLEI  
 OUTPUT=BOTH       OUTPUT=BOTH       OUTPUT=BOTH       OUTPUT=BOTH    
 IEMINT=       0   IEFINT=       0                     IEDINT=       0
                                                       MORB  =       0
          EXTRAPOLATION IN EFFECT
          DIIS IN EFFECT

     -------------------------------
     INTEGRAL TRANSFORMATION OPTIONS
     -------------------------------
     NWORD  =       0     CUTOFF = 1.0E-09
     MPTRAN =       0     DIRTRF =       F
     AOINTS =DUP     

          ----------------------
          INTEGRAL INPUT OPTIONS
          ----------------------
 NOPK  =       1 NORDER=       0 SCHWRZ=       F

     ------------------------------------------
     THE POINT GROUP IS C1 , NAXIS= 0, ORDER= 1
     ------------------------------------------

     DIMENSIONS OF THE SYMMETRY SUBSPACES ARE
 A   =   24

 ..... DONE SETTING UP THE RUN .....
 STEP CPU TIME =     0.01 TOTAL CPU TIME =        0.0 (    0.0 MIN)
 TOTAL WALL CLOCK TIME=        0.0 SECONDS, CPU UTILIZATION IS 100.00%

          ********************
          1 ELECTRON INTEGRALS
          ********************
 ...... END OF ONE-ELECTRON INTEGRALS ......
 STEP CPU TIME =     0.02 TOTAL CPU TIME =        0.0 (    0.0 MIN)
 TOTAL WALL CLOCK TIME=        0.0 SECONDS, CPU UTILIZATION IS 100.00%

          -------------
          GUESS OPTIONS
          -------------
          GUESS =HUCKEL            NORB  =       0          NORDER=       0
          MIX   =       T          PRTMO =       T          PUNMO =       F
          TOLZ  = 1.0E-08          TOLE  = 1.0E-05
          SYMDEN=       F          PURIFY=       F

 INITIAL GUESS ORBITALS GENERATED BY HUCKEL   ROUTINE.
 HUCKEL GUESS REQUIRES      5239 WORDS.
 HOMO AND LUMO MIXED TO BREAK ALPHA-BETA SYMMETRY
 EIGENVALUES ARE DIAGONAL OF 1E- H IN MO BASIS

 SYMMETRIES FOR INITIAL GUESS ORBITALS FOLLOW.  ALPHA SET(S).
     4 ORBITALS ARE OCCUPIED (    1 CORE ORBITALS).
     2=A        3=A        4=A        5=A        6=A        7=A        8=A   
     9=A       10=A       11=A       12=A       13=A       14=A   

                              ----------------------
                              INITIAL GUESS ORBITALS
                              ----------------------

                              ----------------------
                              INITIAL GUESS ORBITALS
                              ----------------------

                              ASSIGNED OCCUPANCIES

                  1.000000   1.000000   1.000000   1.000000   0.000000
                  0.000000   0.000000   0.000000   0.000000   0.000000
                  0.000000   0.000000   0.000000   0.000000   0.000000
                  0.000000   0.000000   0.000000   0.000000   0.000000
                  0.000000   0.000000   0.000000   0.000000

                        1              2              3              4              5
                  -17.502095622   -4.404450950   -3.613931543   -3.613931543   -3.613931543
                       A              A              A              A              A   
    1  C  1  S     -0.569566175   -0.051045849    0.000000000    0.000000000    0.000000000
    2  C  1  S      1.391946684   -0.054173580    0.000000000    0.000000000    0.000000000
    3  C  1  S      0.359624487    0.049538802    0.000000000    0.000000000    0.000000000
    4  C  1  S     -0.205330744   -0.040497050    0.000000000    0.000000000    0.000000000
    5  C  1  S     -0.094016946    0.690384772    0.000000000    0.000000000    0.000000000
    6  C  1  S     -0.073392214    0.380092047    0.000000000    0.000000000    0.000000000
    7  C  1  X      0.000000000    0.000000000    0.055871071    0.017741129    0.000000000
    8  C  1  Y      0.000000000    0.000000000   -0.017741129    0.055871071    0.000000000
    9  C  1  Z      0.000000000    0.000000000    0.000000000    0.000000000    0.058620169
   10  C  1  X      0.000000000    0.000000000    0.691864127    0.219692421    0.000000000
   11  C  1  Y      0.000000000    0.000000000   -0.219692421    0.691864127    0.000000000
   12  C  1  Z      0.000000000    0.000000000    0.000000000    0.000000000    0.725906833
   13  C  1  X      0.000000000    0.000000000    0.246491100    0.078270031    0.000000000
   14  C  1  Y      0.000000000    0.000000000   -0.078270031    0.246491100    0.000000000
   15  C  1  Z      0.000000000    0.000000000    0.000000000    0.000000000    0.258619527
   16  C  1  X      0.000000000    0.000000000    0.011298874    0.003587810    0.000000000
   17  C  1  Y      0.000000000    0.000000000   -0.003587810    0.011298874    0.000000000
   18  C  1  Z      0.000000000    0.000000000    0.000000000    0.000000000    0.011854827
   19  C  1 XX      0.000000000    0.000000000    0.000000000    0.000000000    0.000000000
   20  C  1 YY      0.000000000    0.000000000    0.000000000    0.000000000    0.000000000
   21  C  1 ZZ      0.000000000    0.000000000    0.000000000    0.000000000    0.000000000
   22  C  1 XY      0.000000000    0.000000000    0.000000000    0.000000000    0.000000000
   23  C  1 XZ      0.000000000    0.000000000    0.000000000    0.000000000    0.000000000
   24  C  1 YZ      0.000000000    0.000000000    0.000000000    0.000000000    0.000000000

                        6              7              8              9             10
                  100.262087522   28.593337101   26.788726500    5.286866016    5.286866016
                       A              A              A              A              A   
    1  C  1  S     59.710322157    6.463247743   -1.181971329    0.000000000    0.000000000
    2  C  1  S    -38.427422662    1.241554260   -3.428454999    0.000000000    0.000000000
    3  C  1  S    -31.841041799   -6.201223936    3.144238436    0.000000000    0.000000000
    4  C  1  S     20.431256652   -6.788122510    3.300357332    0.000000000    0.000000000
    5  C  1  S    -15.167735788    9.033937575   -2.830708919    0.000000000    0.000000000
    6  C  1  S     -8.874225031   10.845889378    4.586635336    0.000000000    0.000000000
    7  C  1  X      0.000000000    0.000000000    0.000000000   -1.963555123    0.404344474
    8  C  1  Y      0.000000000    0.000000000    0.000000000   -0.002132104   -2.351070835
    9  C  1  Z      0.000000000    0.000000000    0.000000000   -1.458757197   -0.540830193
   10  C  1  X      0.000000000    0.000000000    0.000000000    2.878593438   -0.592773453
   11  C  1  Y      0.000000000    0.000000000    0.000000000    0.003125688    3.446695741
   12  C  1  Z      0.000000000    0.000000000    0.000000000    2.138554118    0.792863020
   13  C  1  X      0.000000000    0.000000000    0.000000000   -1.854252667    0.381836400
   14  C  1  Y      0.000000000    0.000000000    0.000000000   -0.002013419   -2.220197088
   15  C  1  Z      0.000000000    0.000000000    0.000000000   -1.377554615   -0.510724561
   16  C  1  X      0.000000000    0.000000000    0.000000000    0.769299114   -0.158417679
   17  C  1  Y      0.000000000    0.000000000    0.000000000    0.000835335    0.921123471
   18  C  1  Z      0.000000000    0.000000000    0.000000000    0.571524887    0.211891270
   19  C  1 XX      7.534211401   -7.244424794   -1.361430807    0.000000000    0.000000000
   20  C  1 YY      7.534211401   -7.244424794   -1.361430807    0.000000000    0.000000000
   21  C  1 ZZ      7.534211401   -7.244424794   -1.361430807    0.000000000    0.000000000
   22  C  1 XY      0.000000000    0.000000000    0.000000000    0.000000000    0.000000000
   23  C  1 XZ      0.000000000    0.000000000    0.000000000    0.000000000    0.000000000
   24  C  1 YZ      0.000000000    0.000000000    0.000000000    0.000000000    0.000000000

                       11             12             13             14             15
                    5.286866016   19.133634173    8.775484094    8.775484094    8.775484094
                       A              A              A              A              A   
    1  C  1  S      0.000000000    0.078101764    0.000000000    0.000000000    0.000000000
    2  C  1  S      0.000000000   -2.028879907    0.000000000    0.000000000    0.000000000
    3  C  1  S      0.000000000    1.662416857    0.000000000    0.000000000    0.000000000
    4  C  1  S      0.000000000    0.044958769    0.000000000    0.000000000    0.000000000
    5  C  1  S      0.000000000    2.438673519    0.000000000    0.000000000    0.000000000
    6  C  1  S      0.000000000   -1.449067436    0.000000000    0.000000000    0.000000000
    7  C  1  X      1.401600032    0.000000000   -0.692955674    0.875499573   -0.169173601
    8  C  1  Y      0.675268247    0.000000000    0.821211947    0.543105004   -0.553131692
    9  C  1  Z     -1.887605883    0.000000000    0.347462440    0.462432945    0.969913604
   10  C  1  X     -2.054761085    0.000000000   -0.246026830    0.310837176   -0.060063358
   11  C  1  Y     -0.989950688    0.000000000    0.291562909    0.192823881   -0.196383754
   12  C  1  Z      2.767251015    0.000000000    0.123362988    0.164182091    0.344357913
   13  C  1  X      1.323579138    0.000000000    0.618102540   -0.780928030    0.150899453
   14  C  1  Y      0.637679041    0.000000000   -0.732504559   -0.484438752    0.493382357
   15  C  1  Z     -1.782531186    0.000000000   -0.309929516   -0.412480897   -0.865143450
   16  C  1  X     -0.549131344    0.000000000    0.645819796   -0.815946786    0.157666160
   17  C  1  Y     -0.264562608    0.000000000   -0.765351886   -0.506162191    0.515506849
   18  C  1  Z      0.739543044    0.000000000   -0.323827526   -0.430977567   -0.903938634
   19  C  1 XX      0.000000000   -0.288260683    0.000000000    0.000000000    0.000000000
   20  C  1 YY      0.000000000   -0.288260683    0.000000000    0.000000000    0.000000000
   21  C  1 ZZ      0.000000000   -0.288260683    0.000000000    0.000000000    0.000000000
   22  C  1 XY      0.000000000    0.000000000    0.000000000    0.000000000    0.000000000
   23  C  1 XZ      0.000000000    0.000000000    0.000000000    0.000000000    0.000000000
   24  C  1 YZ      0.000000000    0.000000000    0.000000000    0.000000000    0.000000000

                       16             17             18             19             20
                    4.056614962   -1.998938916   -1.998938916   -1.998938916   -1.998938916
                       A              A              A              A              A   
    1  C  1  S     -0.347064955    0.000000000    0.000000000    0.000000000    0.000000000
    2  C  1  S      0.195271521    0.000000000    0.000000000    0.000000000    0.000000000
    3  C  1  S     -0.534588305    0.000000000    0.000000000    0.000000000    0.000000000
    4  C  1  S      0.903056087    0.000000000    0.000000000    0.000000000    0.000000000
    5  C  1  S      0.269384537    0.000000000    0.000000000    0.000000000    0.000000000
    6  C  1  S     -0.282802373    0.000000000    0.000000000    0.000000000    0.000000000
    7  C  1  X      0.000000000    0.000000000    0.000000000    0.000000000    0.000000000
    8  C  1  Y      0.000000000    0.000000000    0.000000000    0.000000000    0.000000000
    9  C  1  Z      0.000000000    0.000000000    0.000000000    0.000000000    0.000000000
   10  C  1  X      0.000000000    0.000000000    0.000000000    0.000000000    0.000000000
   11  C  1  Y      0.000000000    0.000000000    0.000000000    0.000000000    0.000000000
   12  C  1  Z      0.000000000    0.000000000    0.000000000    0.000000000    0.000000000
   13  C  1  X      0.000000000    0.000000000    0.000000000    0.000000000    0.000000000
   14  C  1  Y      0.000000000    0.000000000    0.000000000    0.000000000    0.000000000
   15  C  1  Z      0.000000000    0.000000000    0.000000000    0.000000000    0.000000000
   16  C  1  X      0.000000000    0.000000000    0.000000000    0.000000000    0.000000000
   17  C  1  Y      0.000000000    0.000000000    0.000000000    0.000000000    0.000000000
   18  C  1  Z      0.000000000    0.000000000    0.000000000    0.000000000    0.000000000
   19  C  1 XX     -0.250751831    0.916461841   -0.400122098    0.000000000    0.000000000
   20  C  1 YY     -0.250751831   -0.804746822   -0.593618187    0.000000000    0.000000000
   21  C  1 ZZ     -0.250751831   -0.111715019    0.993740285    0.000000000    0.000000000
   22  C  1 XY      0.000000000    0.000000000    0.000000000    1.000000000    0.000000000
   23  C  1 XZ      0.000000000    0.000000000    0.000000000    0.000000000    1.000000000
   24  C  1 YZ      0.000000000    0.000000000    0.000000000    0.000000000    0.000000000

                       21             22             23             24
                   -1.998938916    3.783627802    3.783627802    3.783627802
                       A              A              A              A   
    1  C  1  S      0.000000000    0.000000000    0.000000000    0.000000000
    2  C  1  S      0.000000000    0.000000000    0.000000000    0.000000000
    3  C  1  S      0.000000000    0.000000000    0.000000000    0.000000000
    4  C  1  S      0.000000000    0.000000000    0.000000000    0.000000000
    5  C  1  S      0.000000000    0.000000000    0.000000000    0.000000000
    6  C  1  S      0.000000000    0.000000000    0.000000000    0.000000000
    7  C  1  X      0.000000000    0.025671996    0.078342921    0.396031417
    8  C  1  Y      0.000000000    0.019844432    0.396106738   -0.079644199
    9  C  1  Z      0.000000000    0.403217925   -0.024482375   -0.021294746
   10  C  1  X      0.000000000   -0.009473276   -0.028909482   -0.146140368
   11  C  1  Y      0.000000000   -0.007322835   -0.146168162    0.029389670
   12  C  1  Z      0.000000000   -0.148792276    0.009034292    0.007858018
   13  C  1  X      0.000000000   -0.023215546   -0.070846600   -0.358136757
   14  C  1  Y      0.000000000   -0.017945598   -0.358204871    0.072023365
   15  C  1  Z      0.000000000   -0.364635617    0.022139755    0.019257137
   16  C  1  X      0.000000000    0.045875172    0.139996709    0.707697573
   17  C  1  Y      0.000000000    0.035461471    0.707832170   -0.142322058
   18  C  1  Z      0.000000000    0.720539671   -0.043749351   -0.038053142
   19  C  1 XX      0.000000000    0.000000000    0.000000000    0.000000000
   20  C  1 YY      0.000000000    0.000000000    0.000000000    0.000000000
   21  C  1 ZZ      0.000000000    0.000000000    0.000000000    0.000000000
   22  C  1 XY      0.000000000    0.000000000    0.000000000    0.000000000
   23  C  1 XZ      0.000000000    0.000000000    0.000000000    0.000000000
   24  C  1 YZ      1.000000000    0.000000000    0.000000000    0.000000000
 EIGENVALUES ARE DIAGONAL OF 1E- H IN MO BASIS

 SYMMETRIES FOR INITIAL GUESS ORBITALS FOLLOW.   BETA SET(S).
     2 ORBITALS ARE OCCUPIED (    1 CORE ORBITALS).
     2=A        3=A        4=A        5=A        6=A        7=A        8=A   
     9=A       10=A       11=A       12=A   

                              ----------------------
                              INITIAL GUESS ORBITALS
                              ----------------------

                              ----------------------
                              INITIAL GUESS ORBITALS
                              ----------------------

                              ASSIGNED OCCUPANCIES

                  1.000000   1.000000   0.000000   0.000000   0.000000
                  0.000000   0.000000   0.000000   0.000000   0.000000
                  0.000000   0.000000   0.000000   0.000000   0.000000
                  0.000000   0.000000   0.000000   0.000000   0.000000
                  0.000000   0.000000   0.000000   0.000000

                        1              2              3              4              5
                  -17.502095622   -4.404450950   -3.613931543   -3.613931543   -3.613931543
                       A              A              A              A              A   
    1  C  1  S     -0.569566175   -0.051045849    0.000000000    0.000000000    0.000000000
    2  C  1  S      1.391946684   -0.054173580    0.000000000    0.000000000    0.000000000
    3  C  1  S      0.359624487    0.049538802    0.000000000    0.000000000    0.000000000
    4  C  1  S     -0.205330744   -0.040497050    0.000000000    0.000000000    0.000000000
    5  C  1  S     -0.094016946    0.690384772    0.000000000    0.000000000    0.000000000
    6  C  1  S     -0.073392214    0.380092047    0.000000000    0.000000000    0.000000000
    7  C  1  X      0.000000000    0.000000000    0.055871071    0.017741129    0.000000000
    8  C  1  Y      0.000000000    0.000000000   -0.017741129    0.055871071    0.000000000
    9  C  1  Z      0.000000000    0.000000000    0.000000000    0.000000000    0.058620169
   10  C  1  X      0.000000000    0.000000000    0.691864127    0.219692421    0.000000000
   11  C  1  Y      0.000000000    0.000000000   -0.219692421    0.691864127    0.000000000
   12  C  1  Z      0.000000000    0.000000000    0.000000000    0.000000000    0.725906833
   13  C  1  X      0.000000000    0.000000000    0.246491100    0.078270031    0.000000000
   14  C  1  Y      0.000000000    0.000000000   -0.078270031    0.246491100    0.000000000
   15  C  1  Z      0.000000000    0.000000000    0.000000000    0.000000000    0.258619527
   16  C  1  X      0.000000000    0.000000000    0.011298874    0.003587810    0.000000000
   17  C  1  Y      0.000000000    0.000000000   -0.003587810    0.011298874    0.000000000
   18  C  1  Z      0.000000000    0.000000000    0.000000000    0.000000000    0.011854827
   19  C  1 XX      0.000000000    0.000000000    0.000000000    0.000000000    0.000000000
   20  C  1 YY      0.000000000    0.000000000    0.000000000    0.000000000    0.000000000
   21  C  1 ZZ      0.000000000    0.000000000    0.000000000    0.000000000    0.000000000
   22  C  1 XY      0.000000000    0.000000000    0.000000000    0.000000000    0.000000000
   23  C  1 XZ      0.000000000    0.000000000    0.000000000    0.000000000    0.000000000
   24  C  1 YZ      0.000000000    0.000000000    0.000000000    0.000000000    0.000000000

                        6              7              8              9             10
                  100.262087522   28.593337101   26.788726500    5.286866016    5.286866016
                       A              A              A              A              A   
    1  C  1  S     59.710322157    6.463247743   -1.181971329    0.000000000    0.000000000
    2  C  1  S    -38.427422662    1.241554260   -3.428454999    0.000000000    0.000000000
    3  C  1  S    -31.841041799   -6.201223936    3.144238436    0.000000000    0.000000000
    4  C  1  S     20.431256652   -6.788122510    3.300357332    0.000000000    0.000000000
    5  C  1  S    -15.167735788    9.033937575   -2.830708919    0.000000000    0.000000000
    6  C  1  S     -8.874225031   10.845889378    4.586635336    0.000000000    0.000000000
    7  C  1  X      0.000000000    0.000000000    0.000000000   -1.963555123    0.404344474
    8  C  1  Y      0.000000000    0.000000000    0.000000000   -0.002132104   -2.351070835
    9  C  1  Z      0.000000000    0.000000000    0.000000000   -1.458757197   -0.540830193
   10  C  1  X      0.000000000    0.000000000    0.000000000    2.878593438   -0.592773453
   11  C  1  Y      0.000000000    0.000000000    0.000000000    0.003125688    3.446695741
   12  C  1  Z      0.000000000    0.000000000    0.000000000    2.138554118    0.792863020
   13  C  1  X      0.000000000    0.000000000    0.000000000   -1.854252667    0.381836400
   14  C  1  Y      0.000000000    0.000000000    0.000000000   -0.002013419   -2.220197088
   15  C  1  Z      0.000000000    0.000000000    0.000000000   -1.377554615   -0.510724561
   16  C  1  X      0.000000000    0.000000000    0.000000000    0.769299114   -0.158417679
   17  C  1  Y      0.000000000    0.000000000    0.000000000    0.000835335    0.921123471
   18  C  1  Z      0.000000000    0.000000000    0.000000000    0.571524887    0.211891270
   19  C  1 XX      7.534211401   -7.244424794   -1.361430807    0.000000000    0.000000000
   20  C  1 YY      7.534211401   -7.244424794   -1.361430807    0.000000000    0.000000000
   21  C  1 ZZ      7.534211401   -7.244424794   -1.361430807    0.000000000    0.000000000
   22  C  1 XY      0.000000000    0.000000000    0.000000000    0.000000000    0.000000000
   23  C  1 XZ      0.000000000    0.000000000    0.000000000    0.000000000    0.000000000
   24  C  1 YZ      0.000000000    0.000000000    0.000000000    0.000000000    0.000000000

                       11             12             13             14             15
                    5.286866016   19.133634173    8.775484094    8.775484094    8.775484094
                       A              A              A              A              A   
    1  C  1  S      0.000000000    0.078101764    0.000000000    0.000000000    0.000000000
    2  C  1  S      0.000000000   -2.028879907    0.000000000    0.000000000    0.000000000
    3  C  1  S      0.000000000    1.662416857    0.000000000    0.000000000    0.000000000
    4  C  1  S      0.000000000    0.044958769    0.000000000    0.000000000    0.000000000
    5  C  1  S      0.000000000    2.438673519    0.000000000    0.000000000    0.000000000
    6  C  1  S      0.000000000   -1.449067436    0.000000000    0.000000000    0.000000000
    7  C  1  X      1.401600032    0.000000000   -0.692955674    0.875499573   -0.169173601
    8  C  1  Y      0.675268247    0.000000000    0.821211947    0.543105004   -0.553131692
    9  C  1  Z     -1.887605883    0.000000000    0.347462440    0.462432945    0.969913604
   10  C  1  X     -2.054761085    0.000000000   -0.246026830    0.310837176   -0.060063358
   11  C  1  Y     -0.989950688    0.000000000    0.291562909    0.192823881   -0.196383754
   12  C  1  Z      2.767251015    0.000000000    0.123362988    0.164182091    0.344357913
   13  C  1  X      1.323579138    0.000000000    0.618102540   -0.780928030    0.150899453
   14  C  1  Y      0.637679041    0.000000000   -0.732504559   -0.484438752    0.493382357
   15  C  1  Z     -1.782531186    0.000000000   -0.309929516   -0.412480897   -0.865143450
   16  C  1  X     -0.549131344    0.000000000    0.645819796   -0.815946786    0.157666160
   17  C  1  Y     -0.264562608    0.000000000   -0.765351886   -0.506162191    0.515506849
   18  C  1  Z      0.739543044    0.000000000   -0.323827526   -0.430977567   -0.903938634
   19  C  1 XX      0.000000000   -0.288260683    0.000000000    0.000000000    0.000000000
   20  C  1 YY      0.000000000   -0.288260683    0.000000000    0.000000000    0.000000000
   21  C  1 ZZ      0.000000000   -0.288260683    0.000000000    0.000000000    0.000000000
   22  C  1 XY      0.000000000    0.000000000    0.000000000    0.000000000    0.000000000
   23  C  1 XZ      0.000000000    0.000000000    0.000000000    0.000000000    0.000000000
   24  C  1 YZ      0.000000000    0.000000000    0.000000000    0.000000000    0.000000000

                       16             17             18             19             20
                    4.056614962   -1.998938916   -1.998938916   -1.998938916   -1.998938916
                       A              A              A              A              A   
    1  C  1  S     -0.347064955    0.000000000    0.000000000    0.000000000    0.000000000
    2  C  1  S      0.195271521    0.000000000    0.000000000    0.000000000    0.000000000
    3  C  1  S     -0.534588305    0.000000000    0.000000000    0.000000000    0.000000000
    4  C  1  S      0.903056087    0.000000000    0.000000000    0.000000000    0.000000000
    5  C  1  S      0.269384537    0.000000000    0.000000000    0.000000000    0.000000000
    6  C  1  S     -0.282802373    0.000000000    0.000000000    0.000000000    0.000000000
    7  C  1  X      0.000000000    0.000000000    0.000000000    0.000000000    0.000000000
    8  C  1  Y      0.000000000    0.000000000    0.000000000    0.000000000    0.000000000
    9  C  1  Z      0.000000000    0.000000000    0.000000000    0.000000000    0.000000000
   10  C  1  X      0.000000000    0.000000000    0.000000000    0.000000000    0.000000000
   11  C  1  Y      0.000000000    0.000000000    0.000000000    0.000000000    0.000000000
   12  C  1  Z      0.000000000    0.000000000    0.000000000    0.000000000    0.000000000
   13  C  1  X      0.000000000    0.000000000    0.000000000    0.000000000    0.000000000
   14  C  1  Y      0.000000000    0.000000000    0.000000000    0.000000000    0.000000000
   15  C  1  Z      0.000000000    0.000000000    0.000000000    0.000000000    0.000000000
   16  C  1  X      0.000000000    0.000000000    0.000000000    0.000000000    0.000000000
   17  C  1  Y      0.000000000    0.000000000    0.000000000    0.000000000    0.000000000
   18  C  1  Z      0.000000000    0.000000000    0.000000000    0.000000000    0.000000000
   19  C  1 XX     -0.250751831    0.916461841   -0.400122098    0.000000000    0.000000000
   20  C  1 YY     -0.250751831   -0.804746822   -0.593618187    0.000000000    0.000000000
   21  C  1 ZZ     -0.250751831   -0.111715019    0.993740285    0.000000000    0.000000000
   22  C  1 XY      0.000000000    0.000000000    0.000000000    1.000000000    0.000000000
   23  C  1 XZ      0.000000000    0.000000000    0.000000000    0.000000000    1.000000000
   24  C  1 YZ      0.000000000    0.000000000    0.000000000    0.000000000    0.000000000

                       21             22             23             24
                   -1.998938916    3.783627802    3.783627802    3.783627802
                       A              A              A              A   
    1  C  1  S      0.000000000    0.000000000    0.000000000    0.000000000
    2  C  1  S      0.000000000    0.000000000    0.000000000    0.000000000
    3  C  1  S      0.000000000    0.000000000    0.000000000    0.000000000
    4  C  1  S      0.000000000    0.000000000    0.000000000    0.000000000
    5  C  1  S      0.000000000    0.000000000    0.000000000    0.000000000
    6  C  1  S      0.000000000    0.000000000    0.000000000    0.000000000
    7  C  1  X      0.000000000    0.025671996    0.078342921    0.396031417
    8  C  1  Y      0.000000000    0.019844432    0.396106738   -0.079644199
    9  C  1  Z      0.000000000    0.403217925   -0.024482375   -0.021294746
   10  C  1  X      0.000000000   -0.009473276   -0.028909482   -0.146140368
   11  C  1  Y      0.000000000   -0.007322835   -0.146168162    0.029389670
   12  C  1  Z      0.000000000   -0.148792276    0.009034292    0.007858018
   13  C  1  X      0.000000000   -0.023215546   -0.070846600   -0.358136757
   14  C  1  Y      0.000000000   -0.017945598   -0.358204871    0.072023365
   15  C  1  Z      0.000000000   -0.364635617    0.022139755    0.019257137
   16  C  1  X      0.000000000    0.045875172    0.139996709    0.707697573
   17  C  1  Y      0.000000000    0.035461471    0.707832170   -0.142322058
   18  C  1  Z      0.000000000    0.720539671   -0.043749351   -0.038053142
   19  C  1 XX      0.000000000    0.000000000    0.000000000    0.000000000
   20  C  1 YY      0.000000000    0.000000000    0.000000000    0.000000000
   21  C  1 ZZ      0.000000000    0.000000000    0.000000000    0.000000000
   22  C  1 XY      0.000000000    0.000000000    0.000000000    0.000000000
   23  C  1 XZ      0.000000000    0.000000000    0.000000000    0.000000000
   24  C  1 YZ      1.000000000    0.000000000    0.000000000    0.000000000
 ...... END OF INITIAL ORBITAL SELECTION ......
 STEP CPU TIME =     0.00 TOTAL CPU TIME =        0.0 (    0.0 MIN)
 TOTAL WALL CLOCK TIME=        0.0 SECONDS, CPU UTILIZATION IS 100.00%

                    ----------------------
                    AO INTEGRAL TECHNOLOGY
                    ----------------------
     S,P,L SHELL ROTATED AXIS INTEGRALS, REPROGRAMMED BY
        KAZUYA ISHIMURA (IMS) AND JOSE SIERRA (SYNSTAR).
     S,P,D,L SHELL ROTATED AXIS INTEGRALS PROGRAMMED BY
        KAZUYA ISHIMURA (INSTITUTE FOR MOLECULAR SCIENCE).
     S,P,D,F,G SHELL TO TOTAL QUARTET ANGULAR MOMENTUM SUM 5,
        ERIC PROGRAM BY GRAHAM FLETCHER (ELORET AND NASA ADVANCED
        SUPERCOMPUTING DIVISION, AMES RESEARCH CENTER).
     S,P,D,F,G,L SHELL GENERAL RYS QUADRATURE PROGRAMMED BY
        MICHEL DUPUIS (PACIFIC NORTHWEST NATIONAL LABORATORY).

          --------------------
          2 ELECTRON INTEGRALS
          --------------------

 THE -PK- OPTION IS OFF, THE INTEGRALS ARE NOT IN SUPERMATRIX FORM.
 STORING   15000 INTEGRALS/RECORD ON DISK, USING 12 BYTES/INTEGRAL.
 TWO ELECTRON INTEGRAL EVALUATION REQUIRES   60762 WORDS OF MEMORY.
 II,JST,KST,LST =  1  1  1  1 NREC =         1 INTLOC =    1
 II,JST,KST,LST =  2  1  1  1 NREC =         1 INTLOC =    2
 II,JST,KST,LST =  3  1  1  1 NREC =         1 INTLOC =    7
 II,JST,KST,LST =  4  1  1  1 NREC =         1 INTLOC =   22
 II,JST,KST,LST =  5  1  1  1 NREC =         1 INTLOC =   56
 II,JST,KST,LST =  6  1  1  1 NREC =         1 INTLOC =  121
 II,JST,KST,LST =  7  1  1  1 NREC =         1 INTLOC =  232
 II,JST,KST,LST =  8  1  1  1 NREC =         1 INTLOC =  367
 II,JST,KST,LST =  9  1  1  1 NREC =         1 INTLOC =  730
 II,JST,KST,LST = 10  1  1  1 NREC =         1 INTLOC = 1429
 II,JST,KST,LST = 11  1  1  1 NREC =         1 INTLOC = 2635
 TOTAL NUMBER OF NONZERO TWO-ELECTRON INTEGRALS =                7182
          1 INTEGRAL RECORDS WERE STORED ON DISK FILE  8.
  ...... END OF TWO-ELECTRON INTEGRALS .....
 STEP CPU TIME =    12.03 TOTAL CPU TIME =       12.1 (    0.2 MIN)
 TOTAL WALL CLOCK TIME=       11.8 SECONDS, CPU UTILIZATION IS 101.86%

          ---------------------------
                  UHF SCF CALCULATION
          ---------------------------

     NUCLEAR ENERGY =         0.0000000000
     MAXIT =200     NPUNCH=  2     MULT=  3
     EXTRAP=T  DAMP=F  SHIFT=F  RSTRCT=F  DIIS=T  SOSCF=F
     DENSITY MATRIX CONV=  1.00E-05
     MEMORY REQUIRED FOR UHF/ROHF STEP=     56784 WORDS.

 ITER EX     TOTAL ENERGY       E CHANGE  DENSITY CHANGE    DIIS ERROR
   1  0      -37.611788357   -37.611788357   2.086606972   1.544341134
          * * *   INITIATING DIIS PROCEDURE   * * *
   2  1      -37.692937189    -0.081148832   0.068171245   0.030944072
   3  2      -37.693394147    -0.000456958   0.021667155   0.005961157
   4  3      -37.693426926    -0.000032779   0.011376253   0.001468788
   5  4      -37.693431188    -0.000004262   0.004091935   0.000310505
   6  5      -37.693431507    -0.000000319   0.001269670   0.000069658
   7  6      -37.693431527    -0.000000020   0.000088468   0.000007227
   8  7      -37.693431527     0.000000000   0.000002007   0.000000417
   9  8      -37.693431527     0.000000000   0.000000469   0.000000068

          -----------------
          DENSITY CONVERGED
          -----------------

 FINAL UHF ENERGY IS      -37.6934315274 AFTER   9 ITERATIONS

          --------------------
          SPIN SZ   =    1.000
          S-SQUARED =    2.009
          --------------------

  ----- ALPHA SET ----- 

          ------------
          EIGENVECTORS
          ------------

                        1              2              3              4              5
                  -11.344610427   -0.828560147   -0.438521047   -0.438521047    0.036154655
                       A              A              A              A              A   
    1  C  1  S      0.122530884    0.040682553    0.000000000    0.000000000    0.000000000
    2  C  1  S      0.892914501   -0.272516289    0.000000000    0.000000000    0.000000000
    3  C  1  S      0.007568343   -0.024170328    0.000000000    0.000000000    0.000000000
    4  C  1  S     -0.027816935   -0.048550110    0.000000000    0.000000000    0.000000000
    5  C  1  S      0.021090608    0.628440225    0.000000000    0.000000000    0.000000000
    6  C  1  S      0.008873660    0.439624096    0.000000000    0.000000000    0.000000000
    7  C  1  X      0.000000000    0.000000000    0.076929291   -0.044748931    0.000000000
    8  C  1  Y      0.000000000    0.000000000    0.044748931    0.076929291    0.000000000
    9  C  1  Z      0.000000000    0.000000000    0.000000000    0.000000000    0.129946268
   10  C  1  X      0.000000000    0.000000000    0.466251352   -0.271213334    0.000000000
   11  C  1  Y      0.000000000    0.000000000    0.271213334    0.466251352    0.000000000
   12  C  1  Z      0.000000000    0.000000000    0.000000000    0.000000000    0.038033976
   13  C  1  X      0.000000000    0.000000000    0.378961594   -0.220437832    0.000000000
   14  C  1  Y      0.000000000    0.000000000    0.220437832    0.378961594    0.000000000
   15  C  1  Z      0.000000000    0.000000000    0.000000000    0.000000000    0.905234523
   16  C  1  X      0.000000000    0.000000000    0.001704679   -0.000991593    0.000000000
   17  C  1  Y      0.000000000    0.000000000    0.000991593    0.001704679    0.000000000
   18  C  1  Z      0.000000000    0.000000000    0.000000000    0.000000000   -0.006445883
   19  C  1 XX     -0.007441947    0.032637962    0.000000000    0.000000000    0.000000000
   20  C  1 YY     -0.007441947    0.032637962    0.000000000    0.000000000    0.000000000
   21  C  1 ZZ     -0.009385265   -0.023252775    0.000000000    0.000000000    0.000000000
   22  C  1 XY      0.000000000    0.000000000    0.000000000    0.000000000    0.000000000
   23  C  1 XZ      0.000000000    0.000000000    0.000000000    0.000000000    0.000000000
   24  C  1 YZ      0.000000000    0.000000000    0.000000000    0.000000000    0.000000000

                        6              7              8              9             10
                    0.271025888    0.483018200    0.483018200    0.558537466    1.202737685
                       A              A              A              A              A   
    1  C  1  S     -1.483951780    0.000000000    0.000000000    0.000000000    0.000000000
    2  C  1  S      1.509292912    0.000000000    0.000000000    0.000000000    0.000000000
    3  C  1  S      0.594597335    0.000000000    0.000000000    0.000000000    0.000000000
    4  C  1  S     -1.694370872    0.000000000    0.000000000    0.000000000    0.000000000
    5  C  1  S      0.453252600    0.000000000    0.000000000    0.000000000    0.000000000
    6  C  1  S      7.801740126    0.000000000    0.000000000    0.000000000    0.000000000
    7  C  1  X      0.000000000    0.003858298   -0.287437221    0.000000000    0.000000000
    8  C  1  Y      0.000000000   -0.287437221   -0.003858298    0.000000000    0.000000000
    9  C  1  Z      0.000000000    0.000000000    0.000000000   -0.294141844    0.000000000
   10  C  1  X      0.000000000   -0.029255765    2.179509350    0.000000000    0.000000000
   11  C  1  Y      0.000000000    2.179509350    0.029255765    0.000000000    0.000000000
   12  C  1  Z      0.000000000    0.000000000    0.000000000    2.289289007    0.000000000
   13  C  1  X      0.000000000    0.028008243   -2.086570873    0.000000000    0.000000000
   14  C  1  Y      0.000000000   -2.086570873   -0.028008243    0.000000000    0.000000000
   15  C  1  Z      0.000000000    0.000000000    0.000000000   -1.945185376    0.000000000
   16  C  1  X      0.000000000   -0.000644586    0.048020632    0.000000000    0.000000000
   17  C  1  Y      0.000000000    0.048020632    0.000644586    0.000000000    0.000000000
   18  C  1  Z      0.000000000    0.000000000    0.000000000    0.051378153    0.000000000
   19  C  1 XX     -3.341781245    0.000000000    0.000000000    0.000000000   -0.861682718
   20  C  1 YY     -3.341781245    0.000000000    0.000000000    0.000000000    0.861682718
   21  C  1 ZZ     -3.329893894    0.000000000    0.000000000    0.000000000    0.000000000
   22  C  1 XY      0.000000000    0.000000000    0.000000000    0.000000000    0.100019289
   23  C  1 XZ      0.000000000    0.000000000    0.000000000    0.000000000    0.000000000
   24  C  1 YZ      0.000000000    0.000000000    0.000000000    0.000000000    0.000000000

                       11             12             13             14             15
                    1.202737685    1.236789766    1.236789766    1.250186964    1.512567675
                       A              A              A              A              A   
    1  C  1  S      0.000000000    0.000000000    0.000000000    0.141204985   -4.326378331
    2  C  1  S      0.000000000    0.000000000    0.000000000   -0.132712754    3.801369270
    3  C  1  S      0.000000000    0.000000000    0.000000000   -0.056261480    1.719274719
    4  C  1  S      0.000000000    0.000000000    0.000000000    0.162074251   -5.008503761
    5  C  1  S      0.000000000    0.000000000    0.000000000   -0.207749174    7.453007176
    6  C  1  S      0.000000000    0.000000000    0.000000000   -0.320598170    8.877066619
    7  C  1  X      0.000000000    0.000000000    0.000000000    0.000000000    0.000000000
    8  C  1  Y      0.000000000    0.000000000    0.000000000    0.000000000    0.000000000
    9  C  1  Z      0.000000000    0.000000000    0.000000000    0.000000000    0.000000000
   10  C  1  X      0.000000000    0.000000000    0.000000000    0.000000000    0.000000000
   11  C  1  Y      0.000000000    0.000000000    0.000000000    0.000000000    0.000000000
   12  C  1  Z      0.000000000    0.000000000    0.000000000    0.000000000    0.000000000
   13  C  1  X      0.000000000    0.000000000    0.000000000    0.000000000    0.000000000
   14  C  1  Y      0.000000000    0.000000000    0.000000000    0.000000000    0.000000000
   15  C  1  Z      0.000000000    0.000000000    0.000000000    0.000000000    0.000000000
   16  C  1  X      0.000000000    0.000000000    0.000000000    0.000000000    0.000000000
   17  C  1  Y      0.000000000    0.000000000    0.000000000    0.000000000    0.000000000
   18  C  1  Z      0.000000000    0.000000000    0.000000000    0.000000000    0.000000000
   19  C  1 XX      0.086619245    0.000000000    0.000000000   -0.281631368   -6.191881662
   20  C  1 YY     -0.086619245    0.000000000    0.000000000   -0.281631368   -6.191881662
   21  C  1 ZZ      0.000000000    0.000000000    0.000000000    1.216538656   -6.144796564
   22  C  1 XY      0.994985498    0.000000000    0.000000000    0.000000000    0.000000000
   23  C  1 XZ      0.000000000    0.994336175   -0.106280626    0.000000000    0.000000000
   24  C  1 YZ      0.000000000    0.106280626    0.994336175    0.000000000    0.000000000

                       16             17             18             19             20
                    3.548878137    3.548878137    3.582842431    6.278485649   27.652152670
                       A              A              A              A              A   
    1  C  1  S      0.000000000    0.000000000    0.000000000   13.521987454   33.070184751
    2  C  1  S      0.000000000    0.000000000    0.000000000  -12.962704861  -24.664726795
    3  C  1  S      0.000000000    0.000000000    0.000000000   -5.509056243  -15.066325946
    4  C  1  S      0.000000000    0.000000000    0.000000000   11.888337595   13.255960931
    5  C  1  S      0.000000000    0.000000000    0.000000000  -11.444071036   -9.296376335
    6  C  1  S      0.000000000    0.000000000    0.000000000   -6.750186364   -4.667127297
    7  C  1  X     -0.027060770   -2.092425858    0.000000000    0.000000000    0.000000000
    8  C  1  Y     -2.092425858    0.027060770    0.000000000    0.000000000    0.000000000
    9  C  1  Z      0.000000000    0.000000000   -2.090235611    0.000000000    0.000000000
   10  C  1  X      0.033278697    2.573216049    0.000000000    0.000000000    0.000000000
   11  C  1  Y      2.573216049   -0.033278697    0.000000000    0.000000000    0.000000000
   12  C  1  Z      0.000000000    0.000000000    2.534829547    0.000000000    0.000000000
   13  C  1  X     -0.016350877   -1.264302430    0.000000000    0.000000000    0.000000000
   14  C  1  Y     -1.264302430    0.016350877    0.000000000    0.000000000    0.000000000
   15  C  1  Z      0.000000000    0.000000000   -1.242138518    0.000000000    0.000000000
   16  C  1  X      0.003183299    0.246142893    0.000000000    0.000000000    0.000000000
   17  C  1  Y      0.246142893   -0.003183299    0.000000000    0.000000000    0.000000000
   18  C  1  Z      0.000000000    0.000000000    0.246064739    0.000000000    0.000000000
   19  C  1 XX      0.000000000    0.000000000    0.000000000    5.805431702    4.222236465
   20  C  1 YY      0.000000000    0.000000000    0.000000000    5.805431702    4.222236465
   21  C  1 ZZ      0.000000000    0.000000000    0.000000000    5.806275948    4.222261616
   22  C  1 XY      0.000000000    0.000000000    0.000000000    0.000000000    0.000000000
   23  C  1 XZ      0.000000000    0.000000000    0.000000000    0.000000000    0.000000000
   24  C  1 YZ      0.000000000    0.000000000    0.000000000    0.000000000    0.000000000

                       21             22             23             24
                   30.152453350   30.159261121   30.159261121  172.348078035
                       A              A              A              A   
    1  C  1  S      0.000000000    0.000000000    0.000000000   48.078157522
    2  C  1  S      0.000000000    0.000000000    0.000000000  -26.496405330
    3  C  1  S      0.000000000    0.000000000    0.000000000  -28.367541632
    4  C  1  S      0.000000000    0.000000000    0.000000000   11.411839200
    5  C  1  S      0.000000000    0.000000000    0.000000000   -7.253250758
    6  C  1  S      0.000000000    0.000000000    0.000000000   -3.526946958
    7  C  1  X      0.000000000    0.138283525    1.713840791    0.000000000
    8  C  1  Y      0.000000000    1.713840791   -0.138283525    0.000000000
    9  C  1  Z      1.718550582    0.000000000    0.000000000    0.000000000
   10  C  1  X      0.000000000   -0.111006587   -1.375779339    0.000000000
   11  C  1  Y      0.000000000   -1.375779339    0.111006587    0.000000000
   12  C  1  Z     -1.379148972    0.000000000    0.000000000    0.000000000
   13  C  1  X      0.000000000    0.051232198    0.634955106    0.000000000
   14  C  1  Y      0.000000000    0.634955106   -0.051232198    0.000000000
   15  C  1  Z      0.636540746    0.000000000    0.000000000    0.000000000
   16  C  1  X      0.000000000   -0.126805115   -1.571581123    0.000000000
   17  C  1  Y      0.000000000   -1.571581123    0.126805115    0.000000000
   18  C  1  Z     -1.576586308    0.000000000    0.000000000    0.000000000
   19  C  1 XX      0.000000000    0.000000000    0.000000000    3.221465709
   20  C  1 YY      0.000000000    0.000000000    0.000000000    3.221465709
   21  C  1 ZZ      0.000000000    0.000000000    0.000000000    3.221467027
   22  C  1 XY      0.000000000    0.000000000    0.000000000    0.000000000
   23  C  1 XZ      0.000000000    0.000000000    0.000000000    0.000000000
   24  C  1 YZ      0.000000000    0.000000000    0.000000000    0.000000000

  ----- BETA SET ----- 

          ------------
          EIGENVECTORS
          ------------

                        1              2              3              4              5
                  -11.299563580   -0.582532883    0.071645695    0.126388528    0.126388528
                       A              A              A              A              A   
    1  C  1  S      0.118129657    0.024673949    0.000000000    0.000000000    0.000000000
    2  C  1  S      0.900826825   -0.241815608    0.000000000    0.000000000    0.000000000
    3  C  1  S      0.009058744   -0.016928120    0.000000000    0.000000000    0.000000000
    4  C  1  S     -0.033510392   -0.063514550    0.000000000    0.000000000    0.000000000
    5  C  1  S      0.017941873    0.520301397    0.000000000    0.000000000    0.000000000
    6  C  1  S      0.008288774    0.772587294    0.000000000    0.000000000    0.000000000
    7  C  1  X      0.000000000    0.000000000    0.000000000    0.164865036   -0.012355405
    8  C  1  Y      0.000000000    0.000000000    0.000000000    0.012355405    0.164865036
    9  C  1  Z      0.000000000    0.000000000    0.145048755    0.000000000    0.000000000
   10  C  1  X      0.000000000    0.000000000    0.000000000   -0.197373423    0.014791666
   11  C  1  Y      0.000000000    0.000000000    0.000000000   -0.014791666   -0.197373423
   12  C  1  Z      0.000000000    0.000000000   -0.073560388    0.000000000    0.000000000
   13  C  1  X      0.000000000    0.000000000    0.000000000    1.095007381   -0.082062635
   14  C  1  Y      0.000000000    0.000000000    0.000000000    0.082062635    1.095007381
   15  C  1  Z      0.000000000    0.000000000    0.998460909    0.000000000    0.000000000
   16  C  1  X      0.000000000    0.000000000    0.000000000   -0.012036666    0.000902058
   17  C  1  Y      0.000000000    0.000000000    0.000000000   -0.000902058   -0.012036666
   18  C  1  Z      0.000000000    0.000000000   -0.008865079    0.000000000    0.000000000
   19  C  1 XX     -0.007899573   -0.102784195    0.000000000    0.000000000    0.000000000
   20  C  1 YY     -0.007899573   -0.102784195    0.000000000    0.000000000    0.000000000
   21  C  1 ZZ     -0.007234344   -0.052046543    0.000000000    0.000000000    0.000000000
   22  C  1 XY      0.000000000    0.000000000    0.000000000    0.000000000    0.000000000
   23  C  1 XZ      0.000000000    0.000000000    0.000000000    0.000000000    0.000000000
   24  C  1 YZ      0.000000000    0.000000000    0.000000000    0.000000000    0.000000000

                        6              7              8              9             10
                    0.305359953    0.588713450    0.640028330    0.640028330    1.318083799
                       A              A              A              A              A   
    1  C  1  S     -1.592987614    0.000000000    0.000000000    0.000000000   -0.054897001
    2  C  1  S      1.617713617    0.000000000    0.000000000    0.000000000    0.059721541
    3  C  1  S      0.638093928    0.000000000    0.000000000    0.000000000    0.022275242
    4  C  1  S     -1.818350317    0.000000000    0.000000000    0.000000000   -0.054641005
    5  C  1  S      0.611682085    0.000000000    0.000000000    0.000000000    0.031398916
    6  C  1  S      7.996490228    0.000000000    0.000000000    0.000000000    0.111439334
    7  C  1  X      0.000000000    0.000000000   -0.081438890   -0.277638898    0.000000000
    8  C  1  Y      0.000000000    0.000000000   -0.277638898    0.081438890    0.000000000
    9  C  1  Z      0.000000000   -0.292945988    0.000000000    0.000000000    0.000000000
   10  C  1  X      0.000000000    0.000000000    0.645363057    2.200151394    0.000000000
   11  C  1  Y      0.000000000    0.000000000    2.200151394   -0.645363057    0.000000000
   12  C  1  Z      0.000000000    2.294811672    0.000000000    0.000000000    0.000000000
   13  C  1  X      0.000000000    0.000000000   -0.521009693   -1.776209827    0.000000000
   14  C  1  Y      0.000000000    0.000000000   -1.776209827    0.521009693    0.000000000
   15  C  1  Z      0.000000000   -1.902482827    0.000000000    0.000000000    0.000000000
   16  C  1  X      0.000000000    0.000000000    0.014783691    0.050400094    0.000000000
   17  C  1  Y      0.000000000    0.000000000    0.050400094   -0.014783691    0.000000000
   18  C  1  Z      0.000000000    0.052023002    0.000000000    0.000000000    0.000000000
   19  C  1 XX     -3.491448889    0.000000000    0.000000000    0.000000000   -0.568638122
   20  C  1 YY     -3.491448889    0.000000000    0.000000000    0.000000000   -0.568638122
   21  C  1 ZZ     -3.510122866    0.000000000    0.000000000    0.000000000    0.930377724
   22  C  1 XY      0.000000000    0.000000000    0.000000000    0.000000000    0.000000000
   23  C  1 XZ      0.000000000    0.000000000    0.000000000    0.000000000    0.000000000
   24  C  1 YZ      0.000000000    0.000000000    0.000000000    0.000000000    0.000000000

                       11             12             13             14             15
                    1.331697312    1.331697312    1.377897447    1.377897447    1.575495319
                       A              A              A              A              A   
    1  C  1  S      0.000000000    0.000000000    0.000000000    0.000000000   -4.369755520
    2  C  1  S      0.000000000    0.000000000    0.000000000    0.000000000    3.835545804
    3  C  1  S      0.000000000    0.000000000    0.000000000    0.000000000    1.737953450
    4  C  1  S      0.000000000    0.000000000    0.000000000    0.000000000   -5.031780727
    5  C  1  S      0.000000000    0.000000000    0.000000000    0.000000000    7.515286397
    6  C  1  S      0.000000000    0.000000000    0.000000000    0.000000000    8.717539058
    7  C  1  X      0.000000000    0.000000000    0.000000000    0.000000000    0.000000000
    8  C  1  Y      0.000000000    0.000000000    0.000000000    0.000000000    0.000000000
    9  C  1  Z      0.000000000    0.000000000    0.000000000    0.000000000    0.000000000
   10  C  1  X      0.000000000    0.000000000    0.000000000    0.000000000    0.000000000
   11  C  1  Y      0.000000000    0.000000000    0.000000000    0.000000000    0.000000000
   12  C  1  Z      0.000000000    0.000000000    0.000000000    0.000000000    0.000000000
   13  C  1  X      0.000000000    0.000000000    0.000000000    0.000000000    0.000000000
   14  C  1  Y      0.000000000    0.000000000    0.000000000    0.000000000    0.000000000
   15  C  1  Z      0.000000000    0.000000000    0.000000000    0.000000000    0.000000000
   16  C  1  X      0.000000000    0.000000000    0.000000000    0.000000000    0.000000000
   17  C  1  Y      0.000000000    0.000000000    0.000000000    0.000000000    0.000000000
   18  C  1  Z      0.000000000    0.000000000    0.000000000    0.000000000    0.000000000
   19  C  1 XX      0.000000000    0.000000000    0.378856403   -0.778760442   -6.118555059
   20  C  1 YY      0.000000000    0.000000000   -0.378856403    0.778760442   -6.118555059
   21  C  1 ZZ      0.000000000    0.000000000    0.000000000    0.000000000   -6.123301950
   22  C  1 XY      0.000000000    0.000000000    0.899235101    0.437465693    0.000000000
   23  C  1 XZ     -0.005829433    0.999983009    0.000000000    0.000000000    0.000000000
   24  C  1 YZ      0.999983009    0.005829433    0.000000000    0.000000000    0.000000000

                       16             17             18             19             20
                    3.607805291    3.661335102    3.661335102    6.329603165   27.672523593
                       A              A              A              A              A   
    1  C  1  S      0.000000000    0.000000000    0.000000000   13.502442869   33.066387257
    2  C  1  S      0.000000000    0.000000000    0.000000000  -12.943681238  -24.662209634
    3  C  1  S      0.000000000    0.000000000    0.000000000   -5.501417308  -15.064502340
    4  C  1  S      0.000000000    0.000000000    0.000000000   11.863807208   13.253320812
    5  C  1  S      0.000000000    0.000000000    0.000000000  -11.406073655   -9.292801310
    6  C  1  S      0.000000000    0.000000000    0.000000000   -6.709046767   -4.664052414
    7  C  1  X      0.000000000   -2.072359677    0.251395850    0.000000000    0.000000000
    8  C  1  Y      0.000000000   -0.251395850   -2.072359677    0.000000000    0.000000000
    9  C  1  Z     -2.089171823    0.000000000    0.000000000    0.000000000    0.000000000
   10  C  1  X      0.000000000    2.505798190   -0.303975836    0.000000000    0.000000000
   11  C  1  Y      0.000000000    0.303975836    2.505798190    0.000000000    0.000000000
   12  C  1  Z      2.529155206    0.000000000    0.000000000    0.000000000    0.000000000
   13  C  1  X      0.000000000   -1.221642028    0.148196155    0.000000000    0.000000000
   14  C  1  Y      0.000000000   -0.148196155   -1.221642028    0.000000000    0.000000000
   15  C  1  Z     -1.236923715    0.000000000    0.000000000    0.000000000    0.000000000
   16  C  1  X      0.000000000    0.243130441   -0.029493907    0.000000000    0.000000000
   17  C  1  Y      0.000000000    0.029493907    0.243130441    0.000000000    0.000000000
   18  C  1  Z      0.245672802    0.000000000    0.000000000    0.000000000    0.000000000
   19  C  1 XX      0.000000000    0.000000000    0.000000000    5.774887396    4.219925310
   20  C  1 YY      0.000000000    0.000000000    0.000000000    5.774887396    4.219925310
   21  C  1 ZZ      0.000000000    0.000000000    0.000000000    5.777230069    4.219887197
   22  C  1 XY      0.000000000    0.000000000    0.000000000    0.000000000    0.000000000
   23  C  1 XZ      0.000000000    0.000000000    0.000000000    0.000000000    0.000000000
   24  C  1 YZ      0.000000000    0.000000000    0.000000000    0.000000000    0.000000000

                       21             22             23             24
                   30.162102626   30.190073172   30.190073172  172.353944520
                       A              A              A              A   
    1  C  1  S      0.000000000    0.000000000    0.000000000   48.079048300
    2  C  1  S      0.000000000    0.000000000    0.000000000  -26.497020600
    3  C  1  S      0.000000000    0.000000000    0.000000000  -28.367961168
    4  C  1  S      0.000000000    0.000000000    0.000000000   11.412044276
    5  C  1  S      0.000000000    0.000000000    0.000000000   -7.253270886
    6  C  1  S      0.000000000    0.000000000    0.000000000   -3.526843463
    7  C  1  X      0.000000000    1.576171972   -0.687506431    0.000000000
    8  C  1  Y      0.000000000    0.687506431    1.576171972    0.000000000
    9  C  1  Z      1.718840036    0.000000000    0.000000000    0.000000000
   10  C  1  X      0.000000000   -1.264089750    0.551380083    0.000000000
   11  C  1  Y      0.000000000   -0.551380083   -1.264089750    0.000000000
   12  C  1  Z     -1.378950928    0.000000000    0.000000000    0.000000000
   13  C  1  X      0.000000000    0.583153141   -0.254364081    0.000000000
   14  C  1  Y      0.000000000    0.254364081    0.583153141    0.000000000
   15  C  1  Z      0.636350954    0.000000000    0.000000000    0.000000000
   16  C  1  X      0.000000000   -1.445196277    0.630376477    0.000000000
   17  C  1  Y      0.000000000   -0.630376477   -1.445196277    0.000000000
   18  C  1  Z     -1.576614537    0.000000000    0.000000000    0.000000000
   19  C  1 XX      0.000000000    0.000000000    0.000000000    3.221411934
   20  C  1 YY      0.000000000    0.000000000    0.000000000    3.221411934
   21  C  1 ZZ      0.000000000    0.000000000    0.000000000    3.221413999
   22  C  1 XY      0.000000000    0.000000000    0.000000000    0.000000000
   23  C  1 XZ      0.000000000    0.000000000    0.000000000    0.000000000
   24  C  1 YZ      0.000000000    0.000000000    0.000000000    0.000000000
 ...... END OF UHF CALCULATION ......
 STEP CPU TIME =     0.02 TOTAL CPU TIME =       12.1 (    0.2 MIN)
 TOTAL WALL CLOCK TIME=       12.2 SECONDS, CPU UTILIZATION IS  99.34%

          -----------------
          ENERGY COMPONENTS
          -----------------

         WAVEFUNCTION NORMALIZATION =       1.0000000000

                ONE ELECTRON ENERGY =     -50.4545539270
                TWO ELECTRON ENERGY =      12.7611223997
           NUCLEAR REPULSION ENERGY =       0.0000000000
                                      ------------------
                       TOTAL ENERGY =     -37.6934315274

 ELECTRON-ELECTRON POTENTIAL ENERGY =      12.7611223997
  NUCLEUS-ELECTRON POTENTIAL ENERGY =     -88.1494176641
   NUCLEUS-NUCLEUS POTENTIAL ENERGY =       0.0000000000
                                      ------------------
             TOTAL POTENTIAL ENERGY =     -75.3882952644
               TOTAL KINETIC ENERGY =      37.6948637370
                 VIRIAL RATIO (V/T) =       1.9999620052

          ---------------------------------------
          MULLIKEN AND LOWDIN POPULATION ANALYSES
          ---------------------------------------

     MULLIKEN ATOMIC POPULATION IN EACH MOLECULAR ORBITAL
        ALPHA ORBITALS

                      1          2          3          4

                  1.000000   1.000000   1.000000   1.000000

    1             1.000000   1.000000   1.000000   1.000000

     MULLIKEN ATOMIC POPULATION IN EACH MOLECULAR ORBITAL
         BETA ORBITALS

                      1          2

                  1.000000   1.000000

    1             1.000000   1.000000

     ATOMIC SPIN POPULATION (ALPHA MINUS BETA)
       ATOM         MULL.POP.                    LOW.POP.
    1 C             2.000000                     2.000000


          ********* ALL ELECTRONS ********

               ----- POPULATIONS IN EACH AO -----
                             MULLIKEN      LOWDIN
              1  C  1  S      0.21970     0.56685
              2  C  1  S      1.77953     0.82160
              3  C  1  S      0.01981     0.36001
              4  C  1  S     -0.09328     0.34539
              5  C  1  S      1.05914     0.52190
              6  C  1  S      1.17399     0.54546
              7  C  1  X      0.05949     0.12125
              8  C  1  Y      0.05949     0.12125
              9  C  1  Z      0.00000     0.00000
             10  C  1  X      0.52887     0.44400
             11  C  1  Y      0.52887     0.44400
             12  C  1  Z      0.00000     0.00000
             13  C  1  X      0.41115     0.42906
             14  C  1  Y      0.41115     0.42906
             15  C  1  Z      0.00000     0.00000
             16  C  1  X      0.00049     0.00569
             17  C  1  Y      0.00049     0.00569
             18  C  1  Z      0.00000     0.00000
             19  C  1 XX     -0.05107     0.28019
             20  C  1 YY     -0.05107     0.28019
             21  C  1 ZZ     -0.05676     0.27842
             22  C  1 XY      0.00000     0.00000
             23  C  1 XZ      0.00000     0.00000
             24  C  1 YZ      0.00000     0.00000

          ----- MULLIKEN ATOMIC OVERLAP POPULATIONS -----
          (OFF-DIAGONAL ELEMENTS NEED TO BE MULTIPLIED BY 2)

             1

    1    6.0000000

          TOTAL MULLIKEN AND LOWDIN ATOMIC POPULATIONS
       ATOM         MULL.POP.    CHARGE          LOW.POP.     CHARGE
    1 C             6.000000    0.000000         6.000000    0.000000

          -------------------------------
          BOND ORDER AND VALENCE ANALYSIS     BOND ORDER THRESHOLD=0.050
          -------------------------------

                   BOND                       BOND                       BOND
  ATOM PAIR DIST  ORDER      ATOM PAIR DIST  ORDER      ATOM PAIR DIST  ORDER

                       TOTAL       BONDED        FREE
      ATOM            VALENCE     VALENCE     VALENCE
    1 C                 2.019       0.000       2.019

          -----------------------------------------
          ATOMIC SPIN DENSITY AT THE NUCLEUS (A.U.)
          -----------------------------------------
                            SPIN DENS    ALPHA DENS     BETA DENS
    1  C            6.0     0.0822786      62.94692      62.86464

          ---------------------
          ELECTROSTATIC MOMENTS
          ---------------------

 POINT   1           X           Y           Z (BOHR)    CHARGE
                 0.000000    0.000000    0.000000        0.00 (A.U.)
         DX          DY          DZ         /D/  (DEBYE)
     0.000000    0.000000    0.000000    0.000000
 ...... END OF PROPERTY EVALUATION ......
 STEP CPU TIME =     0.02 TOTAL CPU TIME =       12.1 (    0.2 MIN)
 TOTAL WALL CLOCK TIME=       12.2 SECONDS, CPU UTILIZATION IS  99.51%
 100000 WORDS OF DYNAMIC MEMORY USED
 EXECUTION OF GAMESS TERMINATED NORMALLY Wed Nov  7 09:18:58 2007
 DDI: 920 bytes (0.0 MB / 0 MWords) used by master data server.

 ----------------------------------------
 CPU timing information for all processes
 ========================================
 0: 12.090000 + 0.030000 = 12.120000
 ----------------------------------------
 ddikick.x: exited gracefully.
----- accounting info -----
Wed Nov  7 09:19:01 EST 2007
Files used on the master node b40 were:
-rw-r-----    1 toulouse users         454 Nov  7 09:18 /scratch/c_sto14g_cvb1_uhf_c1.F05
-rw-r--r--    1 toulouse users      180012 Nov  7 09:18 /scratch/c_sto14g_cvb1_uhf_c1.F08
-rw-r--r--    1 toulouse users      411600 Nov  7 09:18 /scratch/c_sto14g_cvb1_uhf_c1.F10
0.030u 0.180s 0:15.68 1.3%	0+0k 0+0io 5700pf+0w
